
                                 *****************
                                 * O   R   C   A *
                                 *****************

                                            #,                                       
                                            ###                                      
                                            ####                                     
                                            #####                                    
                                            ######                                   
                                           ########,                                 
                                     ,,################,,,,,                         
                               ,,#################################,,                 
                          ,,##########################################,,             
                       ,#########################################, ''#####,          
                    ,#############################################,,   '####,        
                  ,##################################################,,,,####,       
                ,###########''''           ''''###############################       
              ,#####''   ,,,,##########,,,,          '''####'''          '####       
            ,##' ,,,,###########################,,,                        '##       
           ' ,,###''''                  '''############,,,                           
         ,,##''                                '''############,,,,        ,,,,,,###''
      ,#''                                            '''#######################'''  
     '                                                          ''''####''''         
             ,#######,   #######,   ,#######,      ##                                
            ,#'     '#,  ##    ##  ,#'     '#,    #''#        ######   ,####,        
            ##       ##  ##   ,#'  ##            #'  '#       #        #'  '#        
            ##       ##  #######   ##           ,######,      #####,   #    #        
            '#,     ,#'  ##    ##  '#,     ,#' ,#      #,         ##   #,  ,#        
             '#######'   ##     ##  '#######'  #'      '#     #####' # '####'        



                  #######################################################
                  #                        -***-                        #
                  #          Department of theory and spectroscopy      #
                  #    Directorship and core code : Frank Neese         #
                  #        Max Planck Institute fuer Kohlenforschung    #
                  #                Kaiser Wilhelm Platz 1               #
                  #                 D-45470 Muelheim/Ruhr               #
                  #                      Germany                        #
                  #                                                     #
                  #                  All rights reserved                #
                  #                        -***-                        #
                  #######################################################


                         Program Version 5.0.1 -  RELEASE  -


 With contributions from (in alphabetic order):
   Daniel Aravena         : Magnetic Suceptibility
   Michael Atanasov       : Ab Initio Ligand Field Theory (pilot matlab implementation)
   Alexander A. Auer      : GIAO ZORA, VPT2 properties, NMR spectrum
   Ute Becker             : Parallelization
   Giovanni Bistoni       : ED, misc. LED, open-shell LED, HFLD
   Martin Brehm           : Molecular dynamics
   Dmytro Bykov           : SCF Hessian
   Vijay G. Chilkuri      : MRCI spin determinant printing, contributions to CSF-ICE
   Dipayan Datta          : RHF DLPNO-CCSD density
   Achintya Kumar Dutta   : EOM-CC, STEOM-CC
   Dmitry Ganyushin       : Spin-Orbit,Spin-Spin,Magnetic field MRCI
   Miquel Garcia          : C-PCM and meta-GGA Hessian, CC/C-PCM, Gaussian charge scheme
   Yang Guo               : DLPNO-NEVPT2, F12-NEVPT2, CIM, IAO-localization
   Andreas Hansen         : Spin unrestricted coupled pair/coupled cluster methods
   Benjamin Helmich-Paris : MC-RPA, TRAH-SCF, COSX integrals
   Lee Huntington         : MR-EOM, pCC
   Robert Izsak           : Overlap fitted RIJCOSX, COSX-SCS-MP3, EOM
   Marcus Kettner         : VPT2
   Christian Kollmar      : KDIIS, OOCD, Brueckner-CCSD(T), CCSD density, CASPT2, CASPT2-K
   Simone Kossmann        : Meta GGA functionals, TD-DFT gradient, OOMP2, MP2 Hessian
   Martin Krupicka        : Initial AUTO-CI
   Lucas Lang             : DCDCAS
   Marvin Lechner         : AUTO-CI (C++ implementation), FIC-MRCC
   Dagmar Lenk            : GEPOL surface, SMD
   Dimitrios Liakos       : Extrapolation schemes; Compound Job, initial MDCI parallelization
   Dimitrios Manganas     : Further ROCIS development; embedding schemes
   Dimitrios Pantazis     : SARC Basis sets
   Anastasios Papadopoulos: AUTO-CI, single reference methods and gradients
   Taras Petrenko         : DFT Hessian,TD-DFT gradient, ASA, ECA, R-Raman, ABS, FL, XAS/XES, NRVS
   Peter Pinski           : DLPNO-MP2, DLPNO-MP2 Gradient
   Christoph Reimann      : Effective Core Potentials
   Marius Retegan         : Local ZFS, SOC
   Christoph Riplinger    : Optimizer, TS searches, QM/MM, DLPNO-CCSD(T), (RO)-DLPNO pert. Triples
   Tobias Risthaus        : Range-separated hybrids, TD-DFT gradient, RPA, STAB
   Michael Roemelt        : Original ROCIS implementation
   Masaaki Saitow         : Open-shell DLPNO-CCSD energy and density
   Barbara Sandhoefer     : DKH picture change effects
   Avijit Sen             : IP-ROCIS
   Kantharuban Sivalingam : CASSCF convergence, NEVPT2, FIC-MRCI
   Bernardo de Souza      : ESD, SOC TD-DFT
   Georgi Stoychev        : AutoAux, RI-MP2 NMR, DLPNO-MP2 response
   Willem Van den Heuvel  : Paramagnetic NMR
   Boris Wezisla          : Elementary symmetry handling
   Frank Wennmohs         : Technical directorship


 We gratefully acknowledge several colleagues who have allowed us to
 interface, adapt or use parts of their codes:
   Stefan Grimme, W. Hujo, H. Kruse, P. Pracht,  : VdW corrections, initial TS optimization,
                  C. Bannwarth, S. Ehlert          DFT functionals, gCP, sTDA/sTD-DF
   Ed Valeev, F. Pavosevic, A. Kumar             : LibInt (2-el integral package), F12 methods
   Garnet Chan, S. Sharma, J. Yang, R. Olivares  : DMRG
   Ulf Ekstrom                                   : XCFun DFT Library
   Mihaly Kallay                                 : mrcc  (arbitrary order and MRCC methods)
   Jiri Pittner, Ondrej Demel                    : Mk-CCSD
   Frank Weinhold                                : gennbo (NPA and NBO analysis)
   Christopher J. Cramer and Donald G. Truhlar   : smd solvation model
   Lars Goerigk                                  : TD-DFT with DH, B97 family of functionals
   V. Asgeirsson, H. Jonsson                     : NEB implementation
   FAccTs GmbH                                   : IRC, NEB, NEB-TS, DLPNO-Multilevel, CI-OPT
                                                   MM, QMMM, 2- and 3-layer-ONIOM, Crystal-QMMM,
                                                   LR-CPCM, SF, NACMEs, symmetry and pop. for TD-DFT,
                                                   nearIR, NL-DFT gradient (VV10), updates on ESD,
                                                   ML-optimized integration grids
   S Lehtola, MJT Oliveira, MAL Marques          : LibXC Library
   Liviu Ungur et al                             : ANISO software


 Your calculation uses the libint2 library for the computation of 2-el integrals
 For citations please refer to: http://libint.valeyev.net

 Your ORCA version has been built with support for libXC version: 5.1.0
 For citations please refer to: https://tddft.org/programs/libxc/

 This ORCA versions uses:
   CBLAS   interface :  Fast vector & matrix operations
   LAPACKE interface :  Fast linear algebra routines
   SCALAPACK package :  Parallel linear algebra routines
   Shared memory     :  Shared parallel matrices
   BLAS/LAPACK       :  OpenBLAS 0.3.15  USE64BITINT DYNAMIC_ARCH NO_AFFINITY Haswell SINGLE_THREADED
        Core in use  :  Haswell
   Copyright (c) 2011-2014, The OpenBLAS Project


================================================================================

----- Orbital basis set information -----
Your calculation utilizes the basis: 6-31G(d)
   H-He, Li-Ne : W. J. Hehre, R. Ditchfield and J.A. Pople, J. Chem. Phys. 56, 2257 (1972).
                 Note: He and Ne are unpublished basis sets taken from the Gaussian program.
                 Note: Li and B from J. D. Dill and J. A. Pople, J. Chem. Phys. 62, 2921 (1975).
   Na - Ar     : M. M. Francl, W. J. Pietro, W. J. Hehre, J. S. Binkley, M. S. Gordon, 
                 D. J. DeFrees and J. A. Pople, J. Chem. Phys. 77, 3654 (1982).
   K - Zn      : V. A. Rassolov, J. A. Pople, M. A. Ratner, and T. L. Windus, J. Chem. Phys. 109, 1223 (1998).

================================================================================
                                        WARNINGS
                       Please study these warnings very carefully!
================================================================================


WARNING: Geometry Optimization
  ===> : Switching off AutoStart
         For restart on a previous wavefunction, please use MOREAD

INFO   : the flag for use of the SHARK integral package has been found!

================================================================================
                                       INPUT FILE
================================================================================
NAME = result.inp
|  1> # avogadro generated ORCA input file 
|  2> # Basic Mode
|  3> # 
|  4> ! HF OPT 6-31g(d) LargePrint 
|  5> 
|  6> * xyz 0 1
|  7>    C       -0.52252       -0.01637        0.00000
|  8>    F        0.54748       -0.01637        0.00000
|  9>    F       -0.87919       -0.09087        1.00605
| 10>    F       -0.87919       -0.85038       -0.56755
| 11>    F       -0.87919        0.89215       -0.43850
| 12> *
| 13> 
| 14> 
| 15>                          ****END OF INPUT****
================================================================================

                       *****************************
                       * Geometry Optimization Run *
                       *****************************

Geometry optimization settings:
Update method            Update   .... BFGS
Choice of coordinates    CoordSys .... Z-matrix Internals
Initial Hessian          InHess   .... Almoef's Model

Convergence Tolerances:
Energy Change            TolE     ....  5.0000e-06 Eh
Max. Gradient            TolMAXG  ....  3.0000e-04 Eh/bohr
RMS Gradient             TolRMSG  ....  1.0000e-04 Eh/bohr
Max. Displacement        TolMAXD  ....  4.0000e-03 bohr
RMS Displacement         TolRMSD  ....  2.0000e-03 bohr
Strict Convergence                ....  False
------------------------------------------------------------------------------
                        ORCA OPTIMIZATION COORDINATE SETUP
------------------------------------------------------------------------------

The optimization will be done in new redundant internal coordinates
Making redundant internal coordinates   ...  (new redundants) done
Evaluating the initial hessian          ...  (Almloef) done
Evaluating the coordinates              ...  done
Calculating the B-matrix                .... done
Calculating the G-matrix                .... done
Diagonalizing the G-matrix              .... done
The first mode is                       ....   91
The number of degrees of freedom        ....    9

    -----------------------------------------------------------------
                    Redundant Internal Coordinates


    -----------------------------------------------------------------
         Definition                    Initial Value    Approx d2E/dq
    -----------------------------------------------------------------
      1. B(F   1,C   0)                  1.0700         1.684637   
      2. B(F   2,F   1)                  1.7473         0.116450   
      3. B(F   2,C   0)                  1.0700         1.684636   
      4. B(F   3,F   2)                  1.7473         0.116450   
      5. B(F   3,F   1)                  1.7473         0.116450   
      6. B(F   3,C   0)                  1.0700         1.684639   
      7. B(F   4,C   0)                  1.0700         1.684624   
      8. B(F   4,F   3)                  1.7473         0.116451   
      9. B(F   4,F   2)                  1.7473         0.116452   
     10. B(F   4,F   1)                  1.7473         0.116449   
     11. A(F   1,C   0,F   2)          109.4714         0.616684   
     12. A(F   2,C   0,F   3)          109.4714         0.616684   
     13. A(F   3,C   0,F   4)          109.4710         0.616683   
     14. A(F   1,C   0,F   3)          109.4714         0.616684   
     15. A(F   1,C   0,F   4)          109.4714         0.616683   
     16. A(F   2,C   0,F   4)          109.4707         0.616683   
     17. A(F   2,F   1,F   3)           60.0000         0.241986   
     18. A(F   2,F   1,F   4)           59.9997         0.241986   
     19. A(F   3,F   1,F   4)           59.9999         0.241986   
     20. A(C   0,F   1,F   2)           35.2643         0.373127   
     21. A(C   0,F   1,F   3)           35.2643         0.373128   
     22. A(C   0,F   1,F   4)           35.2644         0.373127   
     23. A(F   1,F   2,F   4)           60.0002         0.241987   
     24. A(C   0,F   2,F   1)           35.2643         0.373127   
     25. A(F   3,F   2,F   4)           60.0000         0.241987   
     26. A(C   0,F   2,F   4)           35.2647         0.373129   
     27. A(F   1,F   2,F   3)           60.0000         0.241986   
     28. A(C   0,F   2,F   3)           35.2643         0.373128   
     29. A(F   2,F   3,F   4)           59.9998         0.241987   
     30. A(F   1,F   3,F   4)           60.0001         0.241987   
     31. A(C   0,F   3,F   4)           35.2645         0.373128   
     32. A(F   1,F   3,F   2)           60.0000         0.241986   
     33. A(C   0,F   3,F   2)           35.2643         0.373128   
     34. A(C   0,F   3,F   1)           35.2643         0.373128   
     35. A(F   2,F   4,F   3)           60.0001         0.241987   
     36. A(F   1,F   4,F   3)           60.0000         0.241986   
     37. A(C   0,F   4,F   3)           35.2644         0.373128   
     38. A(F   1,F   4,F   2)           60.0001         0.241987   
     39. A(C   0,F   4,F   2)           35.2646         0.373128   
     40. A(C   0,F   4,F   1)           35.2643         0.373127   
     41. D(F   3,F   1,C   0,F   2)    120.0004         0.420094   
     42. D(F   4,F   1,C   0,F   3)    120.0000         0.420094   
     43. D(F   2,F   1,C   0,F   4)    119.9996         0.420094   
     44. D(F   3,F   1,C   0,F   4)   -120.0000         0.420094   
     45. D(F   4,F   1,C   0,F   2)   -119.9996         0.420094   
     46. D(F   2,F   1,C   0,F   3)   -120.0004         0.420094   
     47. D(F   3,F   2,C   0,F   4)    119.9996         0.420094   
     48. D(C   0,F   2,F   1,F   3)    -35.2641         0.002843   
     49. D(F   4,F   2,C   0,F   1)    120.0000         0.420094   
     50. D(F   1,F   2,C   0,F   3)    120.0005         0.420094   
     51. D(F   4,F   2,F   1,C   0)    -35.2646         0.002843   
     52. D(F   3,F   2,F   1,F   4)     70.5287         0.002843   
     53. D(F   3,F   2,F   1,C   0)     35.2641         0.002843   
     54. D(C   0,F   2,F   1,F   4)     35.2646         0.002843   
     55. D(F   1,F   2,C   0,F   4)   -120.0000         0.420094   
     56. D(F   4,F   2,F   1,F   3)    -70.5287         0.002843   
     57. D(F   3,F   2,C   0,F   1)   -120.0005         0.420094   
     58. D(F   4,F   2,C   0,F   3)   -119.9996         0.420094   
     59. D(F   4,F   3,F   1,F   2)     70.5285         0.002843   
     60. D(F   2,F   3,F   1,F   4)    -70.5285         0.002843   
     61. D(F   4,F   3,C   0,F   1)   -120.0002         0.420096   
     62. D(F   4,F   3,C   0,F   2)    119.9994         0.420096   
     63. D(F   4,F   3,F   1,C   0)     35.2644         0.002843   
     64. D(C   0,F   3,F   1,F   4)    -35.2644         0.002843   
     65. D(F   2,F   3,C   0,F   4)   -119.9994         0.420096   
     66. D(F   2,F   3,F   1,C   0)    -35.2641         0.002843   
     67. D(F   2,F   3,C   0,F   1)    120.0005         0.420096   
     68. D(F   1,F   3,C   0,F   4)    120.0002         0.420096   
     69. D(C   0,F   3,F   1,F   2)     35.2641         0.002843   
     70. D(C   0,F   3,F   2,F   1)    -35.2641         0.002843   
     71. D(F   1,F   3,C   0,F   2)   -120.0005         0.420096   
     72. D(F   4,F   3,F   2,F   1)    -70.5290         0.002843   
     73. D(F   4,F   3,F   2,C   0)    -35.2649         0.002843   
     74. D(F   1,F   3,F   2,F   4)     70.5290         0.002843   
     75. D(F   1,F   3,F   2,C   0)     35.2641         0.002843   
     76. D(C   0,F   3,F   2,F   4)     35.2649         0.002843   
     77. D(F   2,F   4,F   3,F   1)    -70.5288         0.002843   
     78. D(F   1,F   4,F   3,F   2)     70.5288         0.002843   
     79. D(F   1,F   4,F   3,C   0)     35.2642         0.002843   
     80. D(C   0,F   4,F   3,F   2)     35.2646         0.002843   
     81. D(F   3,F   4,F   2,F   1)     70.5287         0.002843   
     82. D(F   3,F   4,F   2,C   0)     35.2645         0.002843   
     83. D(F   1,F   4,F   2,F   3)    -70.5287         0.002843   
     84. D(F   1,F   4,F   2,C   0)    -35.2642         0.002843   
     85. D(C   0,F   4,F   2,F   3)    -35.2645         0.002843   
     86. D(C   0,F   4,F   2,F   1)     35.2642         0.002843   
     87. D(F   3,F   4,F   1,F   2)    -70.5289         0.002843   
     88. D(F   3,F   4,F   1,C   0)    -35.2643         0.002843   
     89. D(F   2,F   4,F   1,F   3)     70.5289         0.002843   
     90. D(F   2,F   4,F   1,C   0)     35.2646         0.002843   
     91. D(C   0,F   4,F   1,F   3)     35.2643         0.002843   
     92. D(C   0,F   4,F   1,F   2)    -35.2646         0.002843   
     93. D(F   3,F   4,C   0,F   2)   -119.9998         0.420087   
     94. D(C   0,F   4,F   3,F   1)    -35.2642         0.002843   
     95. D(F   3,F   4,C   0,F   1)    120.0002         0.420087   
     96. D(F   2,F   4,C   0,F   3)    119.9998         0.420087   
     97. D(F   2,F   4,C   0,F   1)   -120.0000         0.420087   
     98. D(F   2,F   4,F   3,C   0)    -35.2646         0.002843   
     99. D(F   1,F   4,C   0,F   3)   -120.0002         0.420087   
    100. D(F   1,F   4,C   0,F   2)    120.0000         0.420087   
    -----------------------------------------------------------------

Number of atoms                         .... 5
Number of degrees of freedom            .... 100

         *************************************************************
         *                GEOMETRY OPTIMIZATION CYCLE   1            *
         *************************************************************
---------------------------------
CARTESIAN COORDINATES (ANGSTROEM)
---------------------------------
  C     -0.522520   -0.016370    0.000000
  F      0.547480   -0.016370    0.000000
  F     -0.879190   -0.090870    1.006050
  F     -0.879190   -0.850380   -0.567550
  F     -0.879190    0.892150   -0.438500

----------------------------
CARTESIAN COORDINATES (A.U.)
----------------------------
  NO LB      ZA    FRAG     MASS         X           Y           Z
   0 C     6.0000    0    12.011   -0.987420   -0.030935    0.000000
   1 F     9.0000    0    18.998    1.034587   -0.030935    0.000000
   2 F     9.0000    0    18.998   -1.661428   -0.171719    1.901159
   3 F     9.0000    0    18.998   -1.661428   -1.606985   -1.072514
   4 F     9.0000    0    18.998   -1.661428    1.685919   -0.828645

--------------------------------
INTERNAL COORDINATES (ANGSTROEM)
--------------------------------
 C      0   0   0     0.000000000000     0.00000000     0.00000000
 F      1   0   0     1.070000000000     0.00000000     0.00000000
 F      1   2   0     1.070000159533   109.47140693     0.00000000
 F      1   2   3     1.069999612850   109.47141728   239.99955802
 F      1   2   3     1.070002023035   109.47137165   119.99956065

---------------------------
INTERNAL COORDINATES (A.U.)
---------------------------
 C      0   0   0     0.000000000000     0.00000000     0.00000000
 F      1   0   0     2.022006963296     0.00000000     0.00000000
 F      1   2   0     2.022007264769   109.47140693     0.00000000
 F      1   2   3     2.022006231689   109.47141728   239.99955802
 F      1   2   3     2.022010786279   109.47137165   119.99956065

---------------------
BASIS SET INFORMATION
---------------------
There are 2 groups of distinct atoms

 Group   1 Type C   : 10s4p1d contracted to 3s2p1d pattern {631/31/1}
 Group   2 Type F   : 10s4p1d contracted to 3s2p1d pattern {631/31/1}

Atom   0C    basis set group =>   1
Atom   1F    basis set group =>   2
Atom   2F    basis set group =>   2
Atom   3F    basis set group =>   2
Atom   4F    basis set group =>   2

-------------------------
BASIS SET IN INPUT FORMAT
-------------------------

 # Basis set for element : C 
 NewGTO C 
 S 6 
   1    3047.5249000000      0.0018347002
   2     457.3695100000      0.0140373012
   3     103.9486900000      0.0688426061
   4      29.2101550000      0.2321844206
   5       9.2866630000      0.4679413416
   6       3.1639270000      0.3623120322
 S 3 
   1       7.8682724000     -0.1193324086
   2       1.8812885000     -0.1608542116
   3       0.5442493000      1.1434564826
 P 3 
   1       7.8682724000      0.0689990956
   2       1.8812885000      0.3164239798
   3       0.5442493000      0.7443082524
 S 1 
   1       0.1687144000      1.0000000000
 P 1 
   1       0.1687144000      1.0000000000
 D 1 
   1       0.8000000000      1.0000000000
  end;

 # Basis set for element : F 
 NewGTO F 
 S 6 
   1    7001.7130900000      0.0018196200
   2    1051.3660900000      0.0139160800
   3     239.2856900000      0.0684053199
   4      67.3974453000      0.2331857596
   5      21.5199573000      0.4712674391
   6       7.4031013000      0.3566185493
 S 3 
   1      20.8479528000     -0.1085069803
   2       4.8083083400     -0.1464516604
   3       1.3440698600      1.1286885835
 P 3 
   1      20.8479528000      0.0716287200
   2       4.8083083400      0.3459121001
   3       1.3440698600      0.7224699603
 S 1 
   1       0.3581513900      1.0000000000
 P 1 
   1       0.3581513900      1.0000000000
 D 1 
   1       0.8000000000      1.0000000000
  end;

------------------------------------------------------------------------------
                           ORCA GTO INTEGRAL CALCULATION
------------------------------------------------------------------------------
------------------------------------------------------------------------------
                   ___                                                        
                  /   \      - P O W E R E D   B Y -                         
                 /     \                                                     
                 |  |  |   _    _      __       _____    __    __             
                 |  |  |  | |  | |    /  \     |  _  \  |  |  /  |          
                  \  \/   | |  | |   /    \    | | | |  |  | /  /          
                 / \  \   | |__| |  /  /\  \   | |_| |  |  |/  /          
                |  |  |   |  __  | /  /__\  \  |    /   |      \           
                |  |  |   | |  | | |   __   |  |    \   |  |\   \          
                \     /   | |  | | |  |  |  |  | |\  \  |  | \   \       
                 \___/    |_|  |_| |__|  |__|  |_| \__\ |__|  \__/        
                                                                              
                      - O R C A' S   B I G   F R I E N D -                    
                                      &                                       
                       - I N T E G R A L  F E E D E R -                       
                                                                              
 v1 FN, 2020, v2 2021                                                         
------------------------------------------------------------------------------


Reading SHARK input file result.SHARKINP.tmp ... ok
----------------------
SHARK INTEGRAL PACKAGE
----------------------

Number of atoms                             ...      5
Number of basis functions                   ...     70
Number of shells                            ...     30
Maximum angular momentum                    ...      2
Integral batch strategy                     ... SHARK/LIBINT Hybrid
RI-J (if used) integral strategy            ... SPLIT-RIJ (Revised 2003 algorithm where possible)
Printlevel                                  ...      2
Contraction scheme used                     ... SEGMENTED contraction
Coulomb Range Separation                    ... NOT USED
Exchange Range Separation                   ... NOT USED
Finite Nucleus Model                        ... NOT USED
Auxiliary Coulomb fitting basis             ... NOT available
Auxiliary J/K fitting basis                 ... NOT available
Auxiliary Correlation fitting basis         ... NOT available
Auxiliary 'external' fitting basis          ... NOT available
Integral threshold                          ...     2.500000e-11
Primitive cut-off                           ...     2.500000e-12
Primitive pair pre-selection threshold      ...     2.500000e-12

Calculating pre-screening integrals         ... done (  0.0 sec) Dimension = 30
Organizing shell pair data                  ... done (  0.0 sec)
Shell pair information
Total number of shell pairs                 ...       465
Shell pairs after pre-screening             ...       459
Total number of primitive shell pairs       ...      2955
Primitive shell pairs kept                  ...      2219
          la=0 lb=0:    114 shell pairs
          la=1 lb=0:    150 shell pairs
          la=1 lb=1:     55 shell pairs
          la=2 lb=0:     75 shell pairs
          la=2 lb=1:     50 shell pairs
          la=2 lb=2:     15 shell pairs

Calculating one electron integrals          ... done (  0.0 sec)
Calculating Nuclear repulsion               ... done (  0.0 sec) ENN=    254.011384539400 Eh

SHARK setup successfully completed in   0.1 seconds

Maximum memory used throughout the entire GTOINT-calculation: 7.5 MB
-------------------------------------------------------------------------------
                                 ORCA SCF
-------------------------------------------------------------------------------

------------
SCF SETTINGS
------------
Hamiltonian:
 Ab initio Hamiltonian  Method          .... Hartree-Fock(GTOs)


General Settings:
 Integral files         IntName         .... result
 Hartree-Fock type      HFTyp           .... RHF
 Total Charge           Charge          ....    0
 Multiplicity           Mult            ....    1
 Number of Electrons    NEL             ....   42
 Basis Dimension        Dim             ....   70
 Nuclear Repulsion      ENuc            ....    254.0113845394 Eh

Convergence Acceleration:
 DIIS                   CNVDIIS         .... on
   Start iteration      DIISMaxIt       ....    12
   Startup error        DIISStart       ....  0.200000
   # of expansion vecs  DIISMaxEq       ....     5
   Bias factor          DIISBfac        ....   1.050
   Max. coefficient     DIISMaxC        ....  10.000
 Trust-Rad. Augm. Hess. CNVTRAH         .... auto
   Auto Start mean grad. ratio tolernc. ....  1.125000
   Auto Start start iteration           ....    20
   Auto Start num. interpolation iter.  ....    10
   Max. Number of Micro iterations      ....    16
   Max. Number of Macro iterations      .... Maxiter - #DIIS iter
   Number of Davidson start vectors     ....     2
   Converg. threshold I  (grad. norm)   ....   1.000e-05
   Converg. threshold II (energy diff.) ....   1.000e-08
   Grad. Scal. Fac. for Micro threshold ....   0.100
   Minimum threshold for Micro iter.    ....   0.010
   NR start threshold (gradient norm)   ....   0.001
   Initial trust radius                 ....   0.400
   Minimum AH scaling param. (alpha)    ....   1.000
   Maximum AH scaling param. (alpha)    .... 1000.000
   Orbital update algorithm             .... Taylor
   White noise on init. David. guess    .... on
   Maximum white noise                  ....   0.010
   Quad. conv. algorithm                .... NR
 SOSCF                  CNVSOSCF        .... on
   Start iteration      SOSCFMaxIt      ....   150
   Startup grad/error   SOSCFStart      ....  0.003300
 Level Shifting         CNVShift        .... on
   Level shift para.    LevelShift      ....    0.2500
   Turn off err/grad.   ShiftErr        ....    0.0010
 Zerner damping         CNVZerner       .... off
 Static damping         CNVDamp         .... on
   Fraction old density DampFac         ....    0.7000
   Max. Damping (<1)    DampMax         ....    0.9800
   Min. Damping (>=0)   DampMin         ....    0.0000
   Turn off err/grad.   DampErr         ....    0.1000
 Fernandez-Rico         CNVRico         .... off

SCF Procedure:
 Maximum # iterations   MaxIter         ....   125
 SCF integral mode      SCFMode         .... Direct
   Integral package                     .... SHARK and LIBINT hybrid scheme
 Reset frequency        DirectResetFreq ....    20
 Integral Threshold     Thresh          ....  2.500e-11 Eh
 Primitive CutOff       TCut            ....  2.500e-12 Eh

Convergence Tolerance:
 Convergence Check Mode ConvCheckMode   .... Total+1el-Energy
 Convergence forced     ConvForced      .... 0
 Energy Change          TolE            ....  1.000e-08 Eh
 1-El. energy change                    ....  1.000e-05 Eh
 Orbital Gradient       TolG            ....  1.000e-05
 Orbital Rotation angle TolX            ....  1.000e-05
 DIIS Error             TolErr          ....  5.000e-07


Diagonalization of the overlap matrix:
Smallest eigenvalue                        ... 8.582e-03
Time for diagonalization                   ...    0.001 sec
Threshold for overlap eigenvalues          ... 1.000e-08
Number of eigenvalues below threshold      ... 0
Time for construction of square roots      ...    0.005 sec
Total time needed                          ...    0.006 sec

----------------------
SHARK INTEGRAL PACKAGE
----------------------

Number of atoms                             ...      5
Number of basis functions                   ...     70
Number of shells                            ...     30
Maximum angular momentum                    ...      2
Integral batch strategy                     ... SHARK/LIBINT Hybrid
RI-J (if used) integral strategy            ... SPLIT-RIJ (Revised 2003 algorithm where possible)
Printlevel                                  ...      2
Contraction scheme used                     ... SEGMENTED contraction
Coulomb Range Separation                    ... NOT USED
Exchange Range Separation                   ... NOT USED
Finite Nucleus Model                        ... NOT USED
Auxiliary Coulomb fitting basis             ... NOT available
Auxiliary J/K fitting basis                 ... NOT available
Auxiliary Correlation fitting basis         ... NOT available
Auxiliary 'external' fitting basis          ... NOT available
Integral threshold                          ...     2.500000e-11
Primitive cut-off                           ...     2.500000e-12
Primitive pair pre-selection threshold      ...     2.500000e-12

Time for model grid setup =    0.055 sec

------------------------------
INITIAL GUESS: MODEL POTENTIAL
------------------------------
Loading Hartree-Fock densities                     ... done
Calculating cut-offs                               ... done
Initializing the effective Hamiltonian             ... done
Setting up the integral package (SHARK)            ... done
Starting the Coulomb interaction                   ...     -> Generating integrals - 
    -> L=0 0 :     0.003 sec done=      6270 skipped=         0 prim-skipped=         0
    -> L=1 0 :     0.004 sec done=      8250 skipped=         0 prim-skipped=         0
    -> L=1 1 :     0.002 sec done=      3025 skipped=         0 prim-skipped=         0
    -> L=2 0 :     0.002 sec done=      4125 skipped=         0 prim-skipped=         0
    -> L=2 1 :     0.002 sec done=      2750 skipped=         0 prim-skipped=         0
    -> L=2 2 :     0.001 sec done=       825 skipped=         0 prim-skipped=         0
done (   0.0 sec)
Reading the grid                                   ... done
Mapping shells                                     ... done
Starting the XC term evaluation                    ... done (   0.0 sec)
Transforming the Hamiltonian                       ... done (   0.0 sec)
Diagonalizing the Hamiltonian                      ... done (   0.0 sec)
Back transforming the eigenvectors                 ... done (   0.0 sec)
Now organizing SCF variables                       ... done
                      ------------------
                      INITIAL GUESS DONE (   0.1 sec)
                      ------------------
----------------------
INITIAL GUESS ORBITALS
----------------------
                      0         1         2         3         4         5   
                 -24.27276 -24.27272 -24.27271 -24.27266 -10.05679  -1.54416
                   2.00000   2.00000   2.00000   2.00000   2.00000   2.00000
                  --------  --------  --------  --------  --------  --------
  0C   1s        -0.000125  0.000070  0.000007  0.000581  0.994206 -0.174035
  0C   2s        -0.000149  0.000083  0.000008  0.000695  0.062538  0.283402
  0C   1pz        0.000276 -0.000098 -0.000643  0.000079 -0.000001  0.000009
  0C   1px        0.000273  0.000656  0.000015 -0.000020  0.000000 -0.000001
  0C   1py       -0.000576  0.000243 -0.000303 -0.000150  0.000001 -0.000005
  0C   3s        -0.004784  0.002672  0.000259  0.022185  0.013557 -0.035475
  0C   2pz        0.002740 -0.000969 -0.006378  0.000784 -0.000000 -0.000006
  0C   2px        0.002711  0.006508  0.000152 -0.000202 -0.000000 -0.000010
  0C   2py       -0.005719  0.002406 -0.003006 -0.001489  0.000000 -0.000009
  0C   1dz2      -0.000415  0.001251  0.001167 -0.000254  0.000000  0.000003
  0C   1dxz       0.000461 -0.000163 -0.001073  0.000132 -0.000000 -0.000001
  0C   1dyz      -0.001184  0.000508 -0.001031 -0.000304 -0.000001  0.000001
  0C   1dx2y2    -0.001152 -0.001466  0.000623 -0.000079 -0.000000  0.000003
  0C   1dxy      -0.000962  0.000405 -0.000505 -0.000250 -0.000000  0.000001
  1F   1s         0.226650  0.852416  0.024216  0.457979 -0.000249 -0.095933
  1F   2s         0.008017  0.029700  0.000840  0.015503  0.001407  0.199494
  1F   1pz        0.000021 -0.000008 -0.000050  0.000006 -0.000000  0.000000
  1F   1px       -0.000758 -0.002256 -0.000059 -0.000615  0.001120 -0.103165
  1F   1py       -0.000045  0.000019 -0.000024 -0.000012 -0.000000 -0.000001
  1F   3s        -0.004073 -0.017934 -0.000533 -0.012264 -0.013914  0.170929
  1F   2pz       -0.000360  0.000127  0.000838 -0.000103  0.000000  0.000001
  1F   2px        0.001282  0.004530  0.000126  0.002140  0.007996 -0.028447
  1F   2py        0.000751 -0.000316  0.000395  0.000195 -0.000000  0.000001
  1F   1dz2       0.000533  0.000140 -0.000543  0.000002  0.000637 -0.004286
  1F   1dxz      -0.000103  0.000036  0.000239 -0.000029 -0.000000 -0.000001
  1F   1dyz       0.000567 -0.000243  0.000494  0.000146  0.000000 -0.000003
  1F   1dx2y2    -0.000027 -0.000579 -0.000327  0.000246 -0.001104  0.007418
  1F   1dxy       0.000214 -0.000090  0.000113  0.000056  0.000000  0.000000
  2F   1s         0.148849 -0.338200 -0.707049  0.593179 -0.000249 -0.095932
  2F   2s         0.005301 -0.011865 -0.024689  0.020223  0.001407  0.199502
  2F   1pz       -0.000506  0.000959  0.001819 -0.000926  0.001053 -0.096993
  2F   1px        0.000208 -0.000292 -0.000661  0.000329 -0.000373  0.034390
  2F   1py       -0.000006 -0.000053 -0.000162  0.000058 -0.000078  0.007182
  2F   3s        -0.002466  0.006643  0.014562 -0.015056 -0.013913  0.170903
  2F   2pz        0.000710 -0.002013 -0.003449  0.002702  0.007517 -0.026732
  2F   2px       -0.000735 -0.000096  0.001500 -0.000968 -0.002665  0.009479
  2F   2py        0.000671 -0.000157  0.000712 -0.000012 -0.000557  0.001987
  2F   1dz2      -0.000176  0.000186  0.000495  0.000104 -0.001052  0.007073
  2F   1dxz       0.000188 -0.000152 -0.000279 -0.000049  0.000692 -0.004644
  2F   1dyz       0.000398 -0.000249  0.000205  0.000090  0.000144 -0.000980
  2F   1dx2y2     0.000438  0.000702 -0.000159  0.000031 -0.000117  0.000792
  2F   1dxy       0.000510 -0.000210  0.000351  0.000139 -0.000051  0.000337
  3F   1s         0.152316 -0.372857  0.698405  0.581655 -0.000249 -0.095935
  3F   2s         0.005422 -0.013075  0.024376  0.019820  0.001407  0.199489
  3F   1pz        0.000324 -0.000604  0.000983  0.000515 -0.000594  0.054715
  3F   1px        0.000211 -0.000324  0.000650  0.000318 -0.000373  0.034389
  3F   1py        0.000400 -0.000858  0.001495  0.000736 -0.000873  0.080412
  3F   3s        -0.002538  0.007358 -0.014449 -0.014817 -0.013913  0.170941
  3F   2pz       -0.000975  0.001453 -0.001541 -0.001646 -0.004241  0.015104
  3F   2px       -0.000743 -0.000022 -0.001514 -0.000943 -0.002665  0.009487
  3F   2py       -0.000153  0.001632 -0.003100 -0.002072 -0.006232  0.022183
  3F   1dz2       0.000088 -0.000552 -0.000324  0.000073  0.000099 -0.000661
  3F   1dxz      -0.000516  0.000254  0.000115 -0.000080 -0.000390  0.002615
  3F   1dyz       0.000153  0.000461 -0.000363  0.000129 -0.000912  0.006139
  3F   1dx2y2     0.000592  0.000254  0.000283  0.000006  0.000548 -0.003684
  3F   1dxy       0.000168  0.000010 -0.000436  0.000133 -0.000573  0.003863
  4F   1s        -0.944244  0.091149  0.007014  0.297258 -0.000249 -0.095934
  4F   2s        -0.032856  0.003123  0.000239  0.009891  0.001407  0.199509
  4F   1pz       -0.001004  0.000064 -0.000045  0.000073 -0.000459  0.042274
  4F   1px       -0.000811  0.000109  0.000005  0.000052 -0.000373  0.034390
  4F   1py        0.002079 -0.000130 -0.000034 -0.000151  0.000951 -0.087589
  4F   3s         0.020093 -0.002220 -0.000178 -0.008946 -0.013915  0.170916
  4F   2pz        0.002057 -0.000072  0.000823 -0.000545 -0.003277  0.011654
  4F   2px        0.001607 -0.001017 -0.000032 -0.000333 -0.002666  0.009501
  4F   2py       -0.004255  0.000097  0.000425  0.001112  0.006790 -0.024154
  4F   1dz2      -0.000182 -0.000564 -0.000365 -0.000018  0.000316 -0.002129
  4F   1dxz       0.000139 -0.000035  0.000603  0.000076 -0.000302  0.002037
  4F   1dyz      -0.000371 -0.000289  0.000314 -0.000173  0.000768 -0.005162
  4F   1dx2y2    -0.000277  0.000549 -0.000190 -0.000232  0.000673 -0.004529
  4F   1dxy      -0.000284  0.000035  0.000291 -0.000170  0.000625 -0.004206
                      6         7         8         9        10        11   
                  -1.32722  -1.32721  -1.32720  -0.72383  -0.71461  -0.71459
                   2.00000   2.00000   2.00000   2.00000   2.00000   2.00000
                  --------  --------  --------  --------  --------  --------
  0C   1s         0.000001 -0.000004 -0.000000  0.123527 -0.000103  0.000028
  0C   2s         0.000022 -0.000038  0.000002 -0.252670  0.000251 -0.000031
  0C   1pz        0.258103 -0.171328  0.088835  0.000219  0.276086  0.205165
  0C   1px       -0.144600 -0.073467  0.278493 -0.000458 -0.125732  0.208856
  0C   1py       -0.127789 -0.262895 -0.135718  0.000150 -0.165468  0.183572
  0C   3s        -0.000007 -0.000029 -0.000073  0.075308  0.000008 -0.000048
  0C   2pz       -0.001614  0.001147 -0.000480  0.000062  0.025475  0.018815
  0C   2px        0.000838  0.000496 -0.001794 -0.000103 -0.011375  0.019439
  0C   2py        0.000788  0.001624  0.000800  0.000026 -0.015490  0.016904
  0C   1dz2       0.041268 -0.006201 -0.008693 -0.000014 -0.005423 -0.000152
  0C   1dxz      -0.022756  0.015106 -0.007839  0.000003  0.003106  0.002294
  0C   1dyz       0.008466  0.036682  0.014073  0.000006 -0.001619  0.003564
  0C   1dx2y2    -0.001671 -0.016538  0.044105  0.000011 -0.000328 -0.004804
  0C   1dxy       0.011269  0.023186  0.011968 -0.000006 -0.001867  0.002071
  1F   1s         0.085877  0.043633 -0.165393 -0.064042 -0.034703  0.057736
  1F   2s        -0.183723 -0.093349  0.353839  0.148639  0.076534 -0.127308
  1F   1pz        0.036085 -0.023951  0.012421  0.000145  0.163000  0.121102
  1F   1px        0.065017  0.033036 -0.125224  0.266929  0.135304 -0.225126
  1F   1py       -0.017868 -0.036756 -0.018975  0.000070 -0.097739  0.108400
  1F   3s        -0.141164 -0.071739  0.271957  0.176899  0.131584 -0.219093
  1F   2pz        0.009234 -0.006151  0.003174  0.000054  0.080727  0.059994
  1F   2px        0.004169  0.002098 -0.007982  0.136507  0.050097 -0.083460
  1F   2py       -0.004581 -0.009425 -0.004863  0.000034 -0.048354  0.053693
  1F   1dz2       0.000922  0.000671 -0.002304  0.007540  0.000630 -0.002796
  1F   1dxz      -0.001938  0.001292 -0.000676 -0.000009 -0.010483 -0.007785
  1F   1dyz      -0.000061 -0.000275 -0.000106  0.000002 -0.000299  0.000671
  1F   1dx2y2    -0.002130 -0.000955  0.003773 -0.013050 -0.002907  0.003876
  1F   1dxy       0.000966  0.001988  0.001027 -0.000007  0.006279 -0.006970
  2F   1s        -0.178041  0.070257 -0.000079 -0.063804  0.086596  0.030535
  2F   2s         0.380899 -0.150308  0.000178  0.148133 -0.190963 -0.067355
  2F   1pz       -0.130051  0.041605  0.012342  0.250087 -0.328246 -0.052156
  2F   1px        0.038685 -0.033517  0.038963 -0.088903  0.099943  0.184768
  2F   1py       -0.005567 -0.041615 -0.018969 -0.018411 -0.061369  0.121235
  2F   3s         0.292712 -0.115524  0.000085  0.175938 -0.328455 -0.115749
  2F   2pz       -0.008948  0.001024  0.003179  0.128026 -0.123036 -0.011867
  2F   2px        0.001296 -0.005182  0.009981 -0.045469  0.035380  0.086522
  2F   2py       -0.003204 -0.009949 -0.004847 -0.009447 -0.033259  0.059010
  2F   1dz2       0.004230 -0.000811 -0.001120 -0.012419  0.006998 -0.004253
  2F   1dxz      -0.002324  0.001677 -0.001854  0.008178 -0.003330 -0.009046
  2F   1dyz       0.000147  0.002012  0.000991  0.001699  0.004124 -0.006576
  2F   1dx2y2     0.000429 -0.000219  0.000501 -0.001386  0.000808  0.002115
  2F   1dxy      -0.000212 -0.001064 -0.000297 -0.000607 -0.001995  0.003765
  3F   1s        -0.006479 -0.190207  0.020290 -0.063934  0.006821 -0.088913
  3F   2s         0.013864  0.406915 -0.043410  0.148408 -0.015042  0.196077
  3F   1pz        0.039493  0.076178  0.001740 -0.141225  0.184775 -0.163414
  3F   1px       -0.018077  0.052660  0.032225 -0.089133 -0.060549 -0.055523
  3F   1py       -0.012856  0.110393 -0.034672 -0.207703 -0.065743 -0.309839
  3F   3s         0.010635  0.312755 -0.033342  0.176463 -0.025876  0.337258
  3F   2pz        0.009627  0.004816  0.002000 -0.072272  0.089785 -0.058005
  3F   2px       -0.004928  0.004248  0.009272 -0.045581 -0.031159 -0.013162
  3F   2py       -0.004041  0.006711 -0.006578 -0.106267 -0.035064 -0.119793
  3F   1dz2       0.001671 -0.000383  0.000642  0.001185  0.009573  0.001918
  3F   1dxz       0.000340  0.001674  0.001240 -0.004624  0.002147  0.000449
  3F   1dyz       0.001237  0.003570 -0.000781 -0.010776  0.006102 -0.005746
  3F   1dx2y2     0.000312 -0.002050  0.001692  0.006465  0.002646  0.006199
  3F   1dxy      -0.001228  0.002472  0.000920 -0.006785 -0.005698 -0.001154
  4F   1s         0.098639  0.076327  0.145185 -0.063856 -0.058498  0.000588
  4F   2s        -0.211027 -0.163325 -0.310662  0.148256  0.129024 -0.001310
  4F   1pz       -0.004027 -0.054999 -0.046627 -0.108875  0.018370  0.122639
  4F   1px       -0.052856 -0.035527 -0.009104 -0.089039 -0.191969  0.124543
  4F   1py        0.065254  0.027564  0.103371  0.226015  0.202067  0.105374
  4F   3s        -0.162187 -0.125407 -0.238568  0.176136  0.221988 -0.002189
  4F   2pz        0.004836 -0.009546 -0.003283 -0.055727  0.020791  0.060674
  4F   2px       -0.008747 -0.005409  0.004748 -0.045556 -0.085662  0.061541
  4F   2py        0.004535 -0.002410  0.008498  0.115702  0.076005  0.052450
  4F   1dz2       0.001491 -0.000718  0.001031  0.003742  0.005764  0.005832
  4F   1dxz      -0.000648 -0.001651 -0.000305 -0.003562 -0.001421  0.006654
  4F   1dyz       0.000373  0.002088  0.002731  0.009053 -0.003158 -0.003399
  4F   1dx2y2     0.001061 -0.000110  0.002916  0.007939  0.000752  0.008060
  4F   1dxy       0.002735  0.001290  0.000770  0.007398  0.009290 -0.004328
                     12        13        14        15        16        17   
                  -0.71458  -0.57219  -0.57218  -0.51342  -0.51340  -0.51338
                   2.00000   2.00000   2.00000   2.00000   2.00000   2.00000
                  --------  --------  --------  --------  --------  --------
  0C   1s         0.000167 -0.000003  0.000007 -0.000007 -0.000005 -0.000009
  0C   2s        -0.000361  0.000054  0.000001  0.000034 -0.000022  0.000053
  0C   1pz       -0.033228 -0.000004  0.000107 -0.007320  0.049510 -0.127646
  0C   1px        0.244919 -0.000064  0.000076  0.136534  0.011886 -0.003224
  0C   1py       -0.241510  0.000067 -0.000041 -0.009902  0.127319  0.049996
  0C   3s         0.000171 -0.000176 -0.000177  0.000196  0.000119  0.000257
  0C   2pz       -0.003230  0.000249 -0.000339  0.006897 -0.045994  0.118607
  0C   2px        0.022768 -0.000022  0.000236 -0.127160 -0.011019  0.003235
  0C   2py       -0.022363 -0.000202  0.000058  0.009258 -0.118420 -0.046681
  0C   1dz2       0.002113  0.015112  0.033012 -0.038622  0.004531 -0.050658
  0C   1dxz      -0.000389  0.012269  0.057951  0.002280 -0.015378  0.039673
  0C   1dyz      -0.003860  0.038084 -0.017471  0.004967 -0.059324 -0.009088
  0C   1dx2y2    -0.004304  0.008725  0.019062  0.062547  0.010001 -0.031262
  0C   1dxy      -0.002724 -0.057971  0.012259  0.003063 -0.039558 -0.015526
  1F   1s         0.067633 -0.000006  0.000007 -0.006089 -0.000530  0.000151
  1F   2s        -0.149116  0.000003  0.000004  0.018186  0.001588 -0.000424
  1F   1pz       -0.019646  0.069011  0.326439  0.017753 -0.120823  0.311784
  1F   1px       -0.263697  0.000084 -0.000088 -0.387833 -0.033790  0.009049
  1F   1py       -0.142654 -0.326411  0.069022  0.024155 -0.310877 -0.122030
  1F   3s        -0.256755  0.000089 -0.000135  0.021933  0.001858 -0.000723
  1F   2pz       -0.009685  0.041270  0.195616  0.010072 -0.068682  0.177275
  1F   2px       -0.097707  0.000034 -0.000034 -0.190996 -0.016649  0.004442
  1F   2py       -0.070640 -0.195497  0.041337  0.013728 -0.176744 -0.069328
  1F   1dz2      -0.002843  0.002069  0.004501 -0.004827 -0.000229 -0.001159
  1F   1dxz       0.001258 -0.002756 -0.013107 -0.000652  0.004471 -0.011546
  1F   1dyz      -0.000728  0.005207 -0.002389  0.000123 -0.001456 -0.000223
  1F   1dx2y2     0.004781  0.001188  0.002603  0.008252  0.000837 -0.000907
  1F   1dxy       0.009174  0.013096 -0.002768 -0.000897  0.011514  0.004513
  2F   1s        -0.026650  0.000007 -0.000005  0.002308 -0.001503  0.005464
  2F   2s         0.058768 -0.000007 -0.000028 -0.006861  0.004501 -0.016304
  2F   1pz        0.131438  0.054516  0.099574  0.037198 -0.133531  0.357524
  2F   1px        0.091036  0.087666  0.302229 -0.340239 -0.024617 -0.008430
  2F   1py       -0.153768  0.317515 -0.100488  0.022867 -0.309668 -0.125315
  2F   3s         0.101079 -0.000090  0.000253 -0.008450  0.005345 -0.019685
  2F   2pz        0.053010  0.032620  0.059710  0.010647 -0.069064  0.178487
  2F   2px        0.049370  0.052517  0.181022 -0.189708 -0.016458  0.003944
  2F   2py       -0.075244  0.190285 -0.060188  0.013767 -0.176535 -0.069385
  2F   1dz2      -0.005457 -0.003641 -0.005977  0.003241  0.004541 -0.009000
  2F   1dxz      -0.005941 -0.002456 -0.008226  0.011298  0.000138  0.001126
  2F   1dyz       0.009083 -0.013790  0.004148 -0.001086  0.010147  0.004469
  2F   1dx2y2     0.002489  0.001662  0.009534 -0.002729  0.000538  0.000307
  2F   1dxy      -0.003335 -0.000680  0.000879 -0.000427 -0.005303 -0.001710
  3F   1s         0.034266 -0.000008 -0.000005  0.001515  0.005776 -0.001322
  3F   2s        -0.075552 -0.000006 -0.000008 -0.004506 -0.017252  0.003978
  3F   1pz        0.090105 -0.242394 -0.145977  0.010618 -0.148282  0.317792
  3F   1px        0.213675  0.217944 -0.227041 -0.337850 -0.046208  0.011663
  3F   1py        0.018661  0.071837  0.196348  0.013710 -0.351025 -0.112531
  3F   3s        -0.130121  0.000092  0.000084 -0.005517 -0.020792  0.004612
  3F   2pz        0.035822 -0.145314 -0.087340  0.009865 -0.069489  0.177286
  3F   2px        0.100222  0.130593 -0.136085 -0.189592 -0.016953  0.004381
  3F   2py       -0.003769  0.043129  0.117650  0.013487 -0.177797 -0.068963
  3F   1dz2       0.001349 -0.012303 -0.004115  0.001468  0.002415  0.008692
  3F   1dxz       0.007458  0.003903 -0.002972 -0.006218 -0.000376  0.004796
  3F   1dyz      -0.000443 -0.004523 -0.002984  0.002562 -0.006637  0.005745
  3F   1dx2y2     0.006139  0.002259 -0.012136 -0.004511  0.006449  0.003854
  3F   1dxy       0.007971  0.004580 -0.005522 -0.009178 -0.002753 -0.002544
  4F   1s        -0.075584  0.000006 -0.000011  0.002277 -0.003735 -0.004267
  4F   2s         0.166684  0.000013  0.000004 -0.006739  0.011162  0.012778
  4F   1pz       -0.206439  0.118822 -0.280456  0.009566 -0.107261  0.327219
  4F   1px       -0.007462 -0.305444 -0.075270 -0.340173 -0.017919  0.020569
  4F   1py        0.244541 -0.062562 -0.164716  0.041490 -0.339204 -0.154425
  4F   3s         0.286666  0.000050  0.000092 -0.008362  0.013433  0.015320
  4F   2pz       -0.087138  0.071116 -0.167908  0.009893 -0.068410  0.177638
  4F   2px        0.008471 -0.182961 -0.045149 -0.189685 -0.016241  0.004691
  4F   2py        0.090011 -0.037436 -0.098742  0.014300 -0.177520 -0.070179
  4F   1dz2      -0.001929  0.007495 -0.008298  0.001726 -0.006908  0.003581
  4F   1dxz      -0.001205 -0.003827 -0.000103 -0.004501 -0.003613  0.004010
  4F   1dyz       0.008387 -0.002923  0.008574 -0.001812  0.000403 -0.009608
  4F   1dx2y2     0.004729 -0.008776 -0.008033 -0.003619 -0.008253 -0.001964
  4F   1dxy      -0.002318  0.007443  0.002254  0.010353 -0.001832  0.000401
                     18        19        20        21        22        23   
                  -0.42369  -0.42366  -0.42364   0.23147   0.32585   0.32621
                   2.00000   2.00000   2.00000   0.00000   0.00000   0.00000
                  --------  --------  --------  --------  --------  --------
  0C   1s         0.000003 -0.000006  0.000001 -0.002878 -0.000039  0.000004
  0C   2s         0.000023 -0.000019 -0.000075 -0.023018 -0.000292 -0.000012
  0C   1pz        0.000039 -0.000033  0.000025 -0.000153 -0.002862  0.065766
  0C   1px       -0.000020 -0.000006  0.000001  0.000145  0.112068 -0.032808
  0C   1py        0.000038 -0.000030 -0.000081  0.000179 -0.040849 -0.094266
  0C   3s         0.000115  0.000561  0.000847 -4.380362  0.004820 -0.008336
  0C   2pz        0.000159 -0.000065  0.000078 -0.004380 -0.062190  1.374946
  0C   2px       -0.000023 -0.000048 -0.000044  0.004191  2.354560 -0.685176
  0C   2py        0.000040 -0.000031 -0.000027  0.002359 -0.857898 -1.979213
  0C   1dz2       0.000021 -0.000027 -0.000000 -0.000139 -0.015150  0.022507
  0C   1dxz       0.000015  0.000008  0.000002  0.000023  0.000209 -0.011060
  0C   1dyz      -0.000000  0.000017  0.000012 -0.000040  0.009778  0.018503
  0C   1dx2y2     0.000002 -0.000001 -0.000006  0.000018  0.029402  0.001750
  0C   1dxy      -0.000001  0.000006  0.000004 -0.000012  0.007041  0.016099
  1F   1s         0.000000  0.000005  0.000011 -0.066536  0.065062 -0.019062
  1F   2s        -0.000014  0.000013 -0.000002  0.070920 -0.063890  0.018782
  1F   1pz        0.297873  0.167793  0.317655  0.000481  0.005518 -0.128670
  1F   1px       -0.000010 -0.000012  0.000011  0.034004 -0.068630  0.020013
  1F   1py        0.226686  0.232431 -0.335162 -0.000264  0.080319  0.185458
  1F   3s         0.000018 -0.000166 -0.000233  1.365664 -1.461681  0.427734
  1F   2pz        0.185628  0.104584  0.197947  0.000633  0.011027 -0.235256
  1F   2px       -0.000036  0.000043  0.000045 -0.479044  0.309664 -0.091217
  1F   2py        0.141280  0.144857 -0.208871 -0.000354  0.146683  0.338382
  1F   1dz2      -0.001775 -0.000829 -0.002829 -0.035137  0.014736 -0.015145
  1F   1dxz      -0.011677 -0.006577 -0.012448 -0.000047 -0.000748  0.014297
  1F   1dyz       0.002446  0.002247 -0.002196 -0.000003 -0.005796 -0.011163
  1F   1dx2y2    -0.001017 -0.000482 -0.001629  0.060878 -0.027272  0.001905
  1F   1dxy      -0.008890 -0.009114  0.013140  0.000027 -0.008919 -0.020555
  2F   1s         0.000001  0.000010  0.000007 -0.066773 -0.021554  0.045696
  2F   2s         0.000048 -0.000013  0.000049  0.070919  0.021293 -0.044875
  2F   1pz       -0.118687 -0.030203 -0.101255  0.032180 -0.041671 -0.027977
  2F   1px       -0.264212 -0.141553 -0.322008 -0.011905 -0.203487  0.028611
  2F   1py       -0.337603  0.268856  0.174631 -0.002488  0.083786  0.177667
  2F   3s        -0.000200 -0.000134 -0.000350  1.371951  0.484034 -1.026540
  2F   2pz       -0.073938 -0.018849 -0.063095 -0.451672 -0.211362  0.235896
  2F   2px       -0.164757 -0.088227 -0.200740  0.159933 -0.323987 -0.050048
  2F   2py       -0.210456  0.167579  0.108864  0.032998  0.163168  0.303853
  2F   1dz2       0.007683  0.002156  0.006814  0.058173  0.018159 -0.021488
  2F   1dxz       0.008752  0.005380  0.011561 -0.038250  0.007482  0.010573
  2F   1dyz       0.010966 -0.009357 -0.006497 -0.007937 -0.011237 -0.020004
  2F   1dx2y2    -0.000368 -0.001325 -0.001913  0.006479 -0.021400 -0.002302
  2F   1dxy      -0.007986  0.005237  0.002673  0.002795 -0.003106 -0.006308
  3F   1s        -0.000004  0.000005  0.000007 -0.066665 -0.002214  0.028638
  3F   2s        -0.000003  0.000047  0.000050  0.070947  0.002034 -0.028186
  3F   1pz       -0.316538  0.231232 -0.053804 -0.017669  0.008525 -0.164368
  3F   1px        0.334613  0.270089 -0.092797 -0.011606 -0.218253  0.041631
  3F   1py        0.072259 -0.272783  0.076353 -0.026846  0.084423  0.132907
  3F   3s         0.000056 -0.000294 -0.000336  1.368946  0.050334 -0.643385
  3F   2pz       -0.197352  0.144072 -0.033632  0.255258  0.023957 -0.401800
  3F   2px        0.208578  0.168306 -0.057853  0.159125 -0.394768  0.012551
  3F   2py        0.045035 -0.170095  0.047505  0.373695  0.166103  0.093737
  3F   1dz2      -0.009004  0.008910 -0.002215 -0.005412  0.009606 -0.022866
  3F   1dxz       0.001339  0.011370 -0.003365  0.021539 -0.006882  0.002570
  3F   1dyz      -0.009439 -0.000239  0.000457  0.050424 -0.002325 -0.019465
  3F   1dx2y2     0.000864  0.010038 -0.002955 -0.030281 -0.026040 -0.003460
  3F   1dxy       0.013338  0.003764 -0.001662  0.031621 -0.012452 -0.008127
  4F   1s         0.000004  0.000003  0.000005 -0.066578 -0.040982 -0.055816
  4F   2s         0.000005  0.000032 -0.000016  0.070995  0.039989  0.055208
  4F   1pz        0.137291 -0.368521 -0.162685 -0.013917  0.044928 -0.075642
  4F   1px       -0.070423 -0.128587  0.414843 -0.011490 -0.188013  0.107595
  4F   1py        0.038599 -0.228312  0.084470  0.028889 -0.001032  0.074900
  4F   3s        -0.000059 -0.000203 -0.000169  1.366632  0.921693  1.252252
  4F   2pz        0.085555 -0.229715 -0.101468  0.197164  0.195159  0.015124
  4F   2px       -0.043906 -0.080128  0.258531  0.158586 -0.253231  0.320541
  4F   2py        0.024063 -0.142261  0.052698 -0.406893 -0.235192 -0.179700
  4F   1dz2       0.003121 -0.010232 -0.001754 -0.017353  0.010028 -0.017947
  4F   1dxz       0.001604 -0.010180  0.004244  0.016614 -0.001610  0.011037
  4F   1dyz      -0.003981  0.007342  0.008227 -0.042457 -0.014294 -0.013839
  4F   1dx2y2     0.000520 -0.008229  0.006511 -0.037183 -0.026704 -0.002448
  4F   1dxy       0.003528  0.000102 -0.014154 -0.034347  0.000520 -0.020190
                     24        25        26        27        28        29   
                   0.32666   0.49838   0.49839   0.49841   0.83510   0.93833
                   0.00000   0.00000   0.00000   0.00000   0.00000   0.00000
                  --------  --------  --------  --------  --------  --------
  0C   1s         0.000028 -0.000004 -0.000011 -0.000004  0.177161  0.000089
  0C   2s         0.000236 -0.000023  0.000051  0.000056 -1.446226  0.000515
  0C   1pz        0.100532 -0.602295  0.086578 -0.819497 -0.000059 -0.000141
  0C   1px        0.024922  0.323867  0.958341 -0.136739  0.000063 -0.000399
  0C   1py        0.061112  0.757819 -0.340757 -0.592905 -0.000023  0.001228
  0C   3s        -0.002125 -0.000509 -0.000256 -0.000245 -0.150671  0.000439
  0C   2pz        2.092681  0.207167 -0.029871  0.282520  0.000021  0.000636
  0C   2px        0.519296 -0.111285 -0.328499  0.047130  0.000090 -0.000613
  0C   2py        1.273862 -0.260344  0.116680  0.203832  0.000080  0.000029
  0C   1dz2       0.013904  0.141115  0.074326  0.082167 -0.000014 -0.049938
  0C   1dxz      -0.016934 -0.070525  0.010187 -0.096037  0.000026 -0.039040
  0C   1dyz      -0.019637  0.100524 -0.051887 -0.125741 -0.000003 -0.128985
  0C   1dx2y2     0.016380  0.005554 -0.181597  0.079477  0.000003 -0.028920
  0C   1dxy      -0.010336  0.088772 -0.039934 -0.069471 -0.000016  0.194977
  1F   1s         0.014328  0.016453  0.048738 -0.006951 -0.049839 -0.000039
  1F   2s        -0.014179 -0.068320 -0.202272  0.028864  0.232349  0.000221
  1F   1pz       -0.196043  0.073585 -0.010489  0.099991  0.000051 -0.085371
  1F   1px       -0.015155  0.114687  0.339291 -0.048426 -0.243756  0.000206
  1F   1py       -0.119415 -0.092561  0.041665  0.072379  0.000007  0.426197
  1F   3s        -0.321410 -0.017495 -0.052725  0.007438  0.176835  0.000251
  1F   2pz       -0.357823  0.049085 -0.007155  0.066791 -0.000075  0.101618
  1F   2px        0.068214  0.090902  0.269403 -0.038411 -0.282043 -0.000514
  1F   2py       -0.217720 -0.061869  0.027885  0.048428 -0.000003 -0.508398
  1F   1dz2      -0.007077  0.007606 -0.054252  0.028489  0.076552  0.033045
  1F   1dxz       0.021678  0.061089 -0.008760  0.083104  0.000005 -0.009300
  1F   1dyz       0.011691  0.022531 -0.011652 -0.028180  0.000006  0.085628
  1F   1dx2y2    -0.011935  0.042781  0.082100  0.000281 -0.132559  0.019086
  1F   1dxy       0.013190 -0.076863  0.034561  0.060123  0.000005  0.046409
  2F   1s         0.047136 -0.036959 -0.010909 -0.034733 -0.049852 -0.000018
  2F   2s        -0.046542  0.153388  0.045240  0.144263  0.232412  0.000216
  2F   1pz       -0.092481 -0.251954 -0.106502 -0.206098 -0.229152 -0.069722
  2F   1px       -0.085255  0.075924 -0.083130  0.125217  0.081270 -0.110300
  2F   1py       -0.127077 -0.068502  0.048816  0.094984  0.016981 -0.414057
  2F   3s        -1.057627  0.039772  0.012030  0.036823  0.176937 -0.000464
  2F   2pz        0.127662 -0.198807 -0.080310 -0.166058 -0.265364  0.082983
  2F   2px       -0.261046  0.061324 -0.052364  0.093680  0.094019  0.131711
  2F   2py       -0.253661 -0.043482  0.033225  0.065728  0.019607  0.494551
  2F   1dz2      -0.010650 -0.074160 -0.069390 -0.028455 -0.126432 -0.013759
  2F   1dxz       0.019356  0.036270 -0.074763  0.069689  0.083087 -0.007138
  2F   1dyz       0.019627 -0.049438  0.037243  0.058601  0.017365 -0.073751
  2F   1dx2y2    -0.012050 -0.011498 -0.002733 -0.001319 -0.014106  0.022301
  2F   1dxy       0.002895  0.046404 -0.017444 -0.050123 -0.006140 -0.069673
  3F   1s        -0.062976 -0.019292 -0.005070  0.047877 -0.049845 -0.000060
  3F   2s         0.062305  0.080096  0.021068 -0.198780  0.232374  0.000256
  3F   1pz       -0.118074  0.169340  0.014653 -0.138038  0.129273  0.313326
  3F   1px        0.000337  0.020606 -0.101333 -0.132930  0.081221 -0.287002
  3F   1py       -0.004846  0.048188  0.078690 -0.277419  0.189997 -0.090966
  3F   3s         1.412488  0.020871  0.005394 -0.050994  0.176931  0.000395
  3F   2pz        0.007743  0.122108  0.012071 -0.114363  0.149652 -0.373939
  3F   2px        0.140958  0.019445 -0.066274 -0.102654  0.094044  0.342831
  3F   2py        0.319529  0.045375  0.056041 -0.217750  0.219855  0.109412
  3F   1dz2      -0.013604 -0.058249  0.021771 -0.029971  0.011923 -0.086321
  3F   1dxz       0.012595 -0.053790  0.061814  0.019638 -0.046859  0.045916
  3F   1dyz       0.017213 -0.066284 -0.047208  0.049533 -0.109622  0.004202
  3F   1dx2y2    -0.016243 -0.012228  0.046655 -0.048735  0.065816  0.029287
  3F   1dxy       0.013047  0.033988  0.058662  0.070910 -0.068893 -0.024951
  4F   1s         0.001364  0.039757 -0.032775 -0.006214 -0.049844  0.000144
  4F   2s        -0.001217 -0.165039  0.136041  0.025770  0.232353 -0.000717
  4F   1pz       -0.197613 -0.079184  0.115173  0.123737  0.099853 -0.157591
  4F   1px       -0.049737 -0.163731 -0.014885  0.036090  0.081293  0.396966
  4F   1py       -0.116683  0.223750 -0.218851  0.023038 -0.206959  0.078205
  4F   3s        -0.031124 -0.042580  0.035511  0.006902  0.176905 -0.000862
  4F   2pz       -0.363859 -0.067073  0.088785  0.085051  0.115664  0.187289
  4F   2px       -0.093904 -0.120990 -0.000405  0.025869  0.093949 -0.474212
  4F   2py       -0.204706  0.179005 -0.170671  0.010787 -0.239562 -0.091821
  4F   1dz2      -0.016443 -0.022622  0.024268 -0.055928  0.037969  0.079676
  4F   1dxz       0.005017  0.030181  0.011048 -0.072080 -0.036230 -0.019507
  4F   1dyz       0.018922 -0.011827  0.075843  0.051351  0.092266  0.016677
  4F   1dx2y2    -0.016394 -0.024882  0.063638 -0.033241  0.080856 -0.063374
  4F   1dxy       0.006567 -0.096263 -0.034057 -0.008310  0.075044 -0.001570
                     30        31        32        33        34        35   
                   0.93844   0.97159   0.97162   0.97167   1.04102   1.20794
                   0.00000   0.00000   0.00000   0.00000   0.00000   0.00000
                  --------  --------  --------  --------  --------  --------
  0C   1s        -0.000013  0.000079 -0.000138 -0.000137 -0.201636  0.000014
  0C   2s         0.000088  0.000541 -0.000763 -0.000774 -0.990375  0.000014
  0C   1pz       -0.000577 -0.404401  0.412831 -0.034119 -0.000329  0.000033
  0C   1px       -0.000745  0.258644  0.214357 -0.471495  0.000304  0.000161
  0C   1py        0.000519  0.323730  0.344595  0.334178 -0.000305  0.000321
  0C   3s        -0.000316 -0.000012 -0.000590 -0.000685 -0.590450 -0.000271
  0C   2pz       -0.000253 -0.168780  0.172330 -0.014415  0.000149 -0.000141
  0C   2px       -0.000360  0.108201  0.089347 -0.196534 -0.000008 -0.000604
  0C   2py        0.000407  0.134829  0.143770  0.139336 -0.000278 -0.000171
  0C   1dz2       0.111198 -0.192655  0.052166  0.067225 -0.000190 -0.000136
  0C   1dxz       0.195504  0.097967 -0.099969  0.007967  0.000070 -0.000204
  0C   1dyz      -0.057541 -0.077659 -0.146373 -0.108921  0.000027 -0.000251
  0C   1dx2y2     0.063904  0.014180  0.134088 -0.189909  0.000052  0.000036
  0C   1dxy       0.039076 -0.078779 -0.083690 -0.081487  0.000171  0.000123
  1F   1s        -0.000042  0.023993  0.019887 -0.043741  0.005226  0.000007
  1F   2s         0.000001 -0.100433 -0.083403  0.183195 -0.116349 -0.000089
  1F   1pz        0.425735 -0.174750  0.178564 -0.015279 -0.000234  0.332819
  1F   1px        0.000533 -0.224011 -0.185327  0.408500  0.445869 -0.000015
  1F   1py        0.085750  0.139066  0.148521  0.143244  0.000029  0.232652
  1F   3s         0.000932 -0.222946 -0.184201  0.406167  0.328160  0.000281
  1F   2pz       -0.508344  0.127755 -0.130656  0.011477  0.000149 -0.521338
  1F   2px       -0.001448  0.578819  0.479127 -1.055388 -0.686095  0.000217
  1F   2py       -0.102281 -0.101236 -0.108377 -0.104126 -0.000102 -0.364657
  1F   1dz2      -0.074077 -0.037284  0.022536 -0.003596  0.011988  0.026783
  1F   1dxz       0.046356 -0.014398  0.014682 -0.001285 -0.000013 -0.093777
  1F   1dyz       0.038212 -0.019733 -0.036988 -0.027814  0.000018 -0.033894
  1F   1dx2y2    -0.042851 -0.015978  0.017573 -0.012160 -0.020937  0.015385
  1F   1dxy       0.009310  0.011457  0.012231  0.011828 -0.000034 -0.065874
  2F   1s        -0.000060 -0.045354  0.027153  0.009445  0.005168  0.000020
  2F   2s         0.000275  0.189985 -0.113839 -0.039636 -0.116040 -0.000246
  2F   1pz        0.130812  0.421697 -0.178462 -0.138792  0.419777 -0.133452
  2F   1px        0.393911 -0.099968  0.219273 -0.160077 -0.148713 -0.296646
  2F   1py       -0.126331  0.095868  0.175536  0.154402 -0.031562 -0.379582
  2F   3s         0.000459  0.421040 -0.251725 -0.087299  0.328457  0.000271
  2F   2pz       -0.156758 -1.045643  0.571662  0.254872 -0.646504  0.209164
  2F   2px       -0.470184  0.334616 -0.316786  0.062800  0.229134  0.465162
  2F   2py        0.150889 -0.015510 -0.161139 -0.124660  0.048475  0.595082
  2F   1dz2       0.013998 -0.004532  0.013693 -0.010893 -0.019978  0.060063
  2F   1dxz       0.005476  0.008439  0.012552 -0.028723  0.013166  0.058224
  2F   1dyz      -0.014884  0.001445 -0.001762  0.005510  0.002649  0.115894
  2F   1dx2y2    -0.101003  0.006529  0.023802 -0.032257 -0.002172 -0.053025
  2F   1dxy      -0.019910 -0.028094 -0.035903 -0.028691 -0.001028  0.000582
  3F   1s         0.000005 -0.011499 -0.051856 -0.007910  0.005233 -0.000000
  3F   2s         0.000046  0.048072  0.217152  0.033079 -0.116433 -0.000280
  3F   1pz       -0.193132 -0.259991 -0.206781 -0.073749 -0.236466 -0.361268
  3F   1px       -0.293008  0.058714 -0.149384 -0.239510 -0.148470  0.357861
  3F   1py        0.256812  0.014336 -0.416660  0.057572 -0.347579  0.092671
  3F   3s        -0.000152  0.106898  0.481625  0.073641  0.328199  0.000608
  3F   2pz        0.230217  0.295599  0.627033  0.126713  0.363781  0.566210
  3F   2px        0.349572  0.023010  0.408319  0.220153  0.228648 -0.560541
  3F   2py       -0.306579  0.144655  1.003805  0.064922  0.534879 -0.144758
  3F   1dz2      -0.000673 -0.007569 -0.000842  0.023618  0.001847 -0.128211
  3F   1dxz      -0.039001  0.032020 -0.015655  0.032581 -0.007366  0.042674
  3F   1dyz       0.044195  0.011945 -0.005984 -0.030093 -0.017209 -0.048057
  3F   1dx2y2     0.080347  0.008955  0.005014 -0.015032  0.010357  0.031749
  3F   1dxy       0.032853 -0.038647  0.001922  0.011975 -0.010908  0.055352
  4F   1s         0.000089  0.032894  0.004819  0.042208  0.005189 -0.000015
  4F   2s        -0.000351 -0.137925 -0.020282 -0.177026 -0.116237  0.000310
  4F   1pz       -0.362873  0.014277  0.205588  0.227685 -0.183104  0.161660
  4F   1px       -0.101933  0.264656  0.114627 -0.007351 -0.148598 -0.061574
  4F   1py       -0.216182 -0.250704  0.091546 -0.356424  0.378911  0.053751
  4F   3s        -0.000888 -0.304892 -0.044409 -0.391123  0.328676 -0.000503
  4F   2pz        0.432609 -0.243708 -0.184167 -0.465586  0.281695 -0.253384
  4F   2px        0.121199 -0.382914 -0.111300 -0.237743  0.228969  0.096337
  4F   2py        0.258985  0.666146  0.003792  0.879828 -0.583427 -0.084091
  4F   1dz2       0.032560 -0.023266 -0.015563  0.016256  0.005992  0.041674
  4F   1dxz      -0.062658  0.010807 -0.049615  0.000521 -0.005606 -0.006970
  4F   1dyz      -0.052867 -0.023041 -0.010529  0.011075  0.014582 -0.033402
  4F   1dx2y2     0.047025  0.006103  0.004148 -0.012242  0.012747  0.006175
  4F   1dxy      -0.032314  0.025684 -0.009556 -0.025431  0.011873  0.009743
                     36        37        38        39        40        41   
                   1.20808   1.20814   1.23816   1.23820   1.30378   1.30390
                   0.00000   0.00000   0.00000   0.00000   0.00000   0.00000
                  --------  --------  --------  --------  --------  --------
  0C   1s         0.000004  0.000009  0.000009 -0.000004 -0.000004 -0.000021
  0C   2s         0.000027 -0.000056 -0.000041 -0.000030  0.000016 -0.000089
  0C   1pz       -0.000084 -0.000213 -0.000160 -0.000013 -0.202306 -0.214515
  0C   1px        0.000233 -0.000036 -0.000041 -0.000209  0.218056 -0.213667
  0C   1py        0.000063  0.000169 -0.000040  0.000017  0.072525  0.045398
  0C   3s         0.001202  0.001311  0.000077  0.000121  0.000984  0.000990
  0C   2pz        0.000373  0.000608 -0.000220 -0.000385  0.517396  0.549880
  0C   2px       -0.000587 -0.000114  0.000332  0.001022 -0.561440  0.546761
  0C   2py        0.000297  0.000028 -0.000725 -0.000224 -0.185345 -0.116528
  0C   1dz2      -0.000119 -0.000059 -0.083048 -0.163355 -0.144815 -0.026766
  0C   1dxz      -0.000092  0.000015 -0.073571 -0.290181  0.065079  0.069095
  0C   1dyz       0.000049  0.000322 -0.188739  0.095857 -0.011841  0.001311
  0C   1dx2y2     0.000035 -0.000100 -0.048035 -0.094498  0.056762 -0.152780
  0C   1dxy      -0.000214 -0.000626  0.290172 -0.073575 -0.023410 -0.014739
  1F   1s        -0.000038 -0.000026 -0.000007 -0.000007 -0.018921  0.018529
  1F   2s         0.000633  0.000359  0.000055  0.000049  0.350061 -0.342879
  1F   1pz       -0.308135 -0.249301  0.009208  0.039600  0.183308  0.194290
  1F   1px       -0.000042 -0.000035 -0.000021  0.000039 -0.071368  0.069498
  1F   1py       -0.111698  0.448703 -0.038943  0.009609 -0.065879 -0.041321
  1F   3s        -0.000925 -0.000577 -0.000118 -0.000282 -0.373049  0.366170
  1F   2pz        0.482982  0.390629  0.036718  0.139766 -0.416956 -0.442369
  1F   2px        0.000448  0.000041 -0.000110 -0.000403  0.442211 -0.432195
  1F   2py        0.175222 -0.702655 -0.140630  0.036132  0.149822  0.094055
  1F   1dz2      -0.027427 -0.033550 -0.066116 -0.130365  0.139705  0.240774
  1F   1dxz       0.087292  0.070572  0.073569  0.289310 -0.091700 -0.097602
  1F   1dyz       0.020309 -0.042636 -0.150929  0.076568  0.027152 -0.002762
  1F   1dx2y2    -0.015626 -0.019236 -0.038168 -0.075214  0.191193  0.030407
  1F   1dxy       0.031807 -0.126168 -0.289644  0.073484  0.033162  0.020812
  2F   1s        -0.000038 -0.000036  0.000015  0.000021  0.023199  0.011602
  2F   2s         0.000520  0.000452 -0.000345 -0.000305 -0.429568 -0.214523
  2F   1pz        0.074736  0.087825  0.007464  0.011929  0.036752  0.121670
  2F   1px        0.282026  0.265872  0.012968  0.036457 -0.146565  0.219615
  2F   1py       -0.339391 -0.086926  0.038088 -0.013424 -0.054572 -0.036150
  2F   3s        -0.000953 -0.000829  0.000628  0.000543  0.458598  0.228638
  2F   2pz       -0.117167 -0.137865  0.024631  0.042107 -0.406916 -0.437845
  2F   2px       -0.441759 -0.416613  0.041802  0.128844  0.448029 -0.442542
  2F   2py        0.531761  0.135911  0.135725 -0.049494  0.148289  0.093875
  2F   1dz2      -0.029528 -0.037076  0.086941  0.124991 -0.070705 -0.087650
  2F   1dxz      -0.054654 -0.051756  0.060527  0.168148  0.071707  0.024458
  2F   1dyz       0.101225  0.024707  0.316771 -0.105979  0.065431  0.011953
  2F   1dx2y2     0.065522  0.056814 -0.056454 -0.248265 -0.158806  0.298277
  2F   1dxy       0.008457  0.005100  0.052161 -0.031461  0.041669  0.022378
  3F   1s        -0.000006  0.000005 -0.000031 -0.000008  0.001951 -0.012976
  3F   2s         0.000019 -0.000008  0.000608  0.000208 -0.035547  0.240305
  3F   1pz       -0.209493  0.135400 -0.029682 -0.016481  0.189981  0.148382
  3F   1px       -0.251046  0.217103  0.025558 -0.028655 -0.194190  0.164377
  3F   1py        0.249653 -0.185120  0.009385  0.023478 -0.055757 -0.108819
  3F   3s        -0.000037 -0.000151 -0.001074 -0.000369  0.037193 -0.256975
  3F   2pz        0.328282 -0.212106 -0.108261 -0.059082 -0.417402 -0.439394
  3F   2px        0.393367 -0.340623  0.089930 -0.102245  0.451027 -0.438140
  3F   2py       -0.391145  0.290133  0.034865  0.083767  0.148568  0.097963
  3F   1dz2      -0.047182  0.026678  0.301085  0.071099  0.274703  0.007498
  3F   1dxz      -0.024139  0.021800 -0.103877  0.042644 -0.145913 -0.112498
  3F   1dyz      -0.028641  0.018414  0.092869  0.082300 -0.036572  0.172489
  3F   1dx2y2    -0.101021  0.080114 -0.050485  0.293785 -0.104160  0.185534
  3F   1dxy      -0.042847  0.036977 -0.072828  0.133198  0.084235  0.127061
  4F   1s        -0.000026 -0.000038  0.000012 -0.000005 -0.006247 -0.017165
  4F   2s         0.000534  0.000811 -0.000215  0.000105  0.115824  0.317750
  4F   1pz        0.442937  0.026618  0.013252 -0.035123  0.166051  0.147853
  4F   1px       -0.031542 -0.483077 -0.038287 -0.007086 -0.212017  0.155392
  4F   1py        0.201309 -0.177056 -0.008742 -0.019734 -0.030387  0.056476
  4F   3s        -0.001112 -0.001464  0.000453 -0.000090 -0.124743 -0.339659
  4F   2pz       -0.694360 -0.042209  0.046318 -0.122590 -0.415713 -0.440107
  4F   2px        0.049538  0.757246 -0.132351 -0.028383  0.451807 -0.437874
  4F   2py       -0.315326  0.277808 -0.029371 -0.070105  0.147573  0.087170
  4F   1dz2       0.104048  0.044035 -0.188966  0.195128  0.261521 -0.047587
  4F   1dxz      -0.007650 -0.040259  0.086647 -0.037209 -0.105121 -0.103606
  4F   1dyz      -0.092684 -0.000601  0.041822 -0.205859 -0.005511 -0.187158
  4F   1dx2y2     0.050393 -0.117975  0.221683  0.180324 -0.167359  0.125323
  4F   1dxy       0.003053  0.085697 -0.152780 -0.057894 -0.060622 -0.108376
                     42        43        44        45        46        47   
                   1.30393   1.41313   1.41336   1.41355   1.78022   1.78030
                   0.00000   0.00000   0.00000   0.00000   0.00000   0.00000
                  --------  --------  --------  --------  --------  --------
  0C   1s        -0.000017  0.000026  0.000007 -0.000027  0.000033 -0.000035
  0C   2s        -0.000185  0.000177  0.000107 -0.000067  0.000068 -0.000177
  0C   1pz        0.082904 -0.136494 -0.222942  0.157036 -0.000678  0.000039
  0C   1px       -0.020948  0.265915 -0.071753  0.130060  0.001283 -0.002096
  0C   1py        0.294077  0.058440 -0.195787 -0.226237  0.002928 -0.001250
  0C   3s         0.000665  0.000098 -0.000629  0.000796 -0.004326  0.004306
  0C   2pz       -0.212149  0.557357  0.907367 -0.642893 -0.002887  0.000036
  0C   2px        0.053926 -1.087510  0.291135 -0.530536  0.006144 -0.011468
  0C   2py       -0.753105 -0.236089  0.798724  0.923576  0.015892 -0.006194
  0C   1dz2       0.012079 -0.211429 -0.078332  0.070246 -0.000793  0.000418
  0C   1dxz      -0.026649  0.070292  0.114963 -0.081219  0.000176 -0.000330
  0C   1dyz      -0.138757 -0.019619  0.174962  0.136048 -0.001216  0.000536
  0C   1dx2y2    -0.006541  0.152703 -0.119020  0.174813  0.000383 -0.000872
  0C   1dxy      -0.094393 -0.030060  0.101088  0.116987 -0.000755  0.000536
  1F   1s         0.001800  0.023122 -0.006164  0.011269 -0.000017  0.000070
  1F   2s        -0.033358 -0.262506  0.069609 -0.127717  0.001056 -0.002895
  1F   1pz       -0.074843  0.147407  0.240465 -0.169980  0.009869 -0.014021
  1F   1px        0.006799  0.110614 -0.029773  0.054253  0.000954 -0.001618
  1F   1py       -0.267082 -0.062737  0.211073  0.244189  0.015829  0.012686
  1F   3s         0.035397  0.459456 -0.121662  0.223277 -0.004022  0.009227
  1F   2pz        0.170614 -0.325583 -0.530880  0.375564 -0.014058  0.020925
  1F   2px       -0.042400  0.255656 -0.068847  0.124742 -0.000449  0.000636
  1F   2py        0.607107  0.138366 -0.466510 -0.539537 -0.026461 -0.017696
  1F   1dz2      -0.010254 -0.180317 -0.197776  0.228197  0.167892 -0.419709
  1F   1dxz       0.037724 -0.030943 -0.051154  0.036163  0.133583 -0.188905
  1F   1dyz       0.310783 -0.035915  0.319192  0.249054 -0.463017 -0.282933
  1F   1dx2y2    -0.016498 -0.076091 -0.121976  0.145679  0.097539 -0.243515
  1F   1dxy       0.133500  0.013330 -0.045091 -0.051917  0.188670  0.175560
  2F   1s        -0.005643 -0.019178 -0.014928  0.010417  0.000046 -0.000059
  2F   2s         0.104116  0.217598  0.169052 -0.118316 -0.002482  0.002259
  2F   1pz       -0.040062 -0.163562 -0.001707 -0.000754 -0.004746  0.005411
  2F   1px        0.006594 -0.177296  0.162466 -0.200371 -0.007887  0.013505
  2F   1py       -0.268699 -0.039381  0.229387  0.231751 -0.012368 -0.000769
  2F   3s        -0.111291 -0.380931 -0.294930  0.207460  0.007836 -0.006436
  2F   2pz        0.168750 -0.029368 -0.300363  0.214005  0.004977 -0.006046
  2F   2px       -0.042445  0.530295 -0.251227  0.367338  0.011413 -0.018315
  2F   2py        0.605934  0.116013 -0.483975 -0.527689  0.015543  0.002170
  2F   1dz2       0.052943  0.031980 -0.040505  0.059563 -0.093915  0.149484
  2F   1dxz       0.002373  0.127782 -0.051777  0.122556 -0.140187  0.293193
  2F   1dyz       0.224110 -0.033017  0.065621  0.025817 -0.013086 -0.045159
  2F   1dx2y2     0.018374  0.238756 -0.159364  0.217902 -0.210022  0.350318
  2F   1dxy       0.242483 -0.073823  0.286029  0.277208  0.462084 -0.025484
  3F   1s         0.023112 -0.005369  0.025494  0.004335  0.000102 -0.000076
  3F   2s        -0.427538  0.060717 -0.289014 -0.048983 -0.004750  0.003457
  3F   1pz        0.007130  0.196381  0.006488 -0.209304 -0.011081  0.007783
  3F   1px        0.070361 -0.256726 -0.069560 -0.165243  0.017421  0.001402
  3F   1py       -0.146151  0.009304 -0.131988  0.186180  0.002609 -0.007660
  3F   3s         0.456553 -0.105702  0.505715  0.084950  0.014731 -0.010584
  3F   2pz        0.165055 -0.372320 -0.308099  0.412781  0.019756 -0.013616
  3F   2px       -0.046364  0.605928 -0.030718  0.333656 -0.025085 -0.001201
  3F   2py        0.598578  0.070012 -0.140013 -0.484422 -0.002726  0.009690
  3F   1dz2      -0.006556 -0.210814 -0.035930 -0.063197 -0.219366 -0.065870
  3F   1dxz      -0.097968  0.071295  0.080814 -0.334297  0.057932 -0.308505
  3F   1dyz      -0.010768  0.180422  0.034758  0.142474  0.335928  0.044565
  3F   1dx2y2     0.179573  0.151675 -0.001610  0.123481  0.175105  0.012698
  3F   1dxy      -0.005864 -0.240165 -0.057469  0.118067 -0.448184  0.142215
  4F   1s        -0.019277  0.001411 -0.004399 -0.026034 -0.000073 -0.000017
  4F   2s         0.357185 -0.015564  0.050001  0.295650  0.003149  0.000370
  4F   1pz       -0.128496  0.137092  0.271159  0.014021  0.004590  0.000859
  4F   1px       -0.023785 -0.295814  0.102799  0.009250 -0.007594 -0.018618
  4F   1py       -0.156565 -0.041653  0.146381 -0.136710  0.001357 -0.007241
  4F   3s        -0.381755  0.026740 -0.088068 -0.517328 -0.010255 -0.000507
  4F   2pz        0.174968 -0.316094 -0.559940  0.200154 -0.007966 -0.001185
  4F   2px       -0.041025  0.642796 -0.195065  0.167380  0.008591  0.029716
  4F   2py        0.598942  0.118784 -0.404673 -0.176535 -0.001273  0.011476
  4F   1dz2      -0.088062 -0.271809  0.039868 -0.014812  0.144733  0.338413
  4F   1dxz       0.170308  0.042805  0.366303 -0.066318 -0.050949  0.206800
  4F   1dyz       0.056658 -0.170652  0.102920 -0.009741  0.138871  0.284820
  4F   1dx2y2    -0.155509  0.142776 -0.072024  0.035131 -0.061769 -0.119721
  4F   1dxy       0.024881  0.210700  0.117206  0.005788 -0.204330 -0.292747
                     48        49        50        51        52        53   
                   1.78051   1.80743   1.80786   1.80849   1.88156   1.88184
                   0.00000   0.00000   0.00000   0.00000   0.00000   0.00000
                  --------  --------  --------  --------  --------  --------
  0C   1s         0.000021  0.000023  0.000015  0.000003  0.000002 -0.000010
  0C   2s         0.000073 -0.000292  0.000282 -0.000136 -0.000037 -0.000008
  0C   1pz        0.000294  0.030263  0.315448 -0.495065 -0.001499  0.001361
  0C   1px        0.002858  0.505642 -0.266156 -0.138341  0.000010 -0.000349
  0C   1py        0.001598 -0.297810 -0.418061 -0.285169 -0.002892  0.000312
  0C   3s        -0.002747 -0.005531  0.001135 -0.001037 -0.000226  0.001303
  0C   2pz        0.002046  0.144042  1.467582 -2.303256 -0.003899  0.007341
[...]
 4 F  s               1.3       6.9       0.2       0.0       0.0       0.0
 4 F  pz              2.7       0.6       0.0       0.0       0.0       0.0
 4 F  px              0.7       0.4       0.0       0.0       0.0       0.0
 4 F  py              0.7       2.4       0.1       0.0       0.0       0.0
 4 F  dz2             0.0       0.5       3.1      10.5       1.2       8.7
 4 F  dxz             0.3       0.8      17.5       4.4       6.5       0.5
 4 F  dyz             4.5       0.4       0.1       6.5       0.4       8.7
 4 F  dx2y2           2.2       0.2       0.0       6.1       0.0       1.4
 4 F  dxy             0.4       0.0       7.3       1.4       0.0      17.8

                     48        49        50        51        52        53   
                   2.08960   2.11578   2.11578   2.28798   2.28798   2.28798
                   0.00000   0.00000   0.00000   0.00000   0.00000   0.00000
                  --------  --------  --------  --------  --------  --------
 0 C  pz              0.0       0.0       0.0       2.7       3.6       0.0
 0 C  px              0.0       0.0       0.0       0.0       0.1       6.2
 0 C  py              0.0       0.0       0.0       3.7       2.6       0.1
 0 C  dz2             0.0       0.1       0.2       0.5       0.5       0.4
 0 C  dxz             0.0       0.4       0.3       0.3       0.4       0.0
 0 C  dyz             0.0       0.2       0.1       0.4       0.8       0.0
 0 C  dx2y2           0.0       0.0       0.1       0.3       0.0       1.4
 0 C  dxy             0.0       0.3       0.4       0.4       0.3       0.0
 1 F  s               0.0       0.0       0.0       0.1       0.6      25.2
 1 F  pz              0.0       0.3       0.3       0.2       0.3       0.0
 1 F  px              0.0       0.0       0.0       0.0       0.0       0.2
 1 F  py              0.0       0.3       0.3       0.3       0.2       0.0
 1 F  dz2             2.4       6.0      11.5       1.1       1.6       5.9
 1 F  dxz             0.6       0.5       0.4       2.2       2.9       0.0
 1 F  dyz             0.8      15.4       8.0       1.1       1.8       0.1
 1 F  dx2y2           0.8       2.0       3.8       0.9       0.0      19.0
 1 F  dxy             0.4       0.4       0.5       2.9       2.1       0.1
 2 F  s               0.0       0.0       0.0      10.8      13.3       1.8
 2 F  pz              0.0       0.0       0.0       0.0       0.0       0.1
 2 F  px              0.0       0.3       0.3       0.1       0.0       0.4
 2 F  py              0.0       0.3       0.3       0.3       0.3       0.0
 2 F  dz2             0.4       0.5       0.4       6.9       7.0       4.7
 2 F  dxz             0.6       3.3       1.8       4.3       4.5       0.2
 2 F  dyz             0.2       0.1       0.7       2.3       5.1       0.1
 2 F  dx2y2           1.8       9.1       9.1       1.2       0.2       4.3
 2 F  dxy            24.8      11.2      12.2       0.6       0.2       0.0
 3 F  s               0.0       0.0       0.0       1.3      18.6       6.0
 3 F  pz              0.0       0.0       0.4       0.4       0.0       0.1
 3 F  px              0.0       0.5       0.0       0.0       0.2       0.3
 3 F  py              0.0       0.1       0.1       0.1       0.1       0.1
 3 F  dz2             0.4       5.4       1.5       3.3       2.4       1.1
 3 F  dxz            25.9       4.8      12.8       0.1       3.3       0.0
 3 F  dyz             0.0       7.5       0.2       3.3       8.4       2.4
 3 F  dx2y2           0.1       5.1       0.0       1.0       1.4       8.5
 3 F  dxy            11.0       1.2       9.6       1.3       5.1       0.0
 4 F  s               0.0       0.0       0.0      22.4       2.1       1.5
 4 F  pz              0.0       0.5       0.0       0.0       0.5       0.0
 4 F  px              0.0       0.0       0.5       0.1       0.0       0.4
 4 F  py              0.0       0.1       0.1       0.1       0.0       0.1
 4 F  dz2             2.4       1.9       8.7       4.0       2.2       0.7
 4 F  dxz            25.7      15.6       4.5       2.1       0.2       0.0
 4 F  dyz             0.4       0.0       5.6       6.0       6.0       0.1
 4 F  dx2y2           0.0       0.0       3.5       4.7       0.0       8.0
 4 F  dxy             1.1       6.6       1.8       6.2       1.0       0.3

                     54        55        56        57        58        59   
                   2.31564   2.31564   2.31564   2.38729   2.38730   2.38730
                   0.00000   0.00000   0.00000   0.00000   0.00000   0.00000
                  --------  --------  --------  --------  --------  --------
 0 C  pz              0.0       5.5       4.1       0.0       0.0       0.0
 0 C  px              9.6       0.0       0.0       0.0       0.0       0.0
 0 C  py              0.0       4.1       5.5       0.0       0.0       0.0
 0 C  dz2             5.7       4.3       7.3       0.0       0.0       0.0
 0 C  dxz             0.0       4.4       3.3       0.0       0.0       0.0
 0 C  dyz             0.0      10.0       5.4       0.0       0.0       0.0
 0 C  dx2y2          17.4       1.1       2.7       0.0       0.0       0.0
 0 C  dxy             0.0       3.3       4.4       0.0       0.0       0.0
 1 F  s               4.8       0.0       0.0       0.0       0.0       0.0
 1 F  pz              0.0       3.0       2.2       3.0       1.0       0.6
 1 F  px             13.9       0.0       0.0       0.0       0.0       0.0
 1 F  py              0.0       2.2       3.0       1.3       3.2       0.1
 1 F  dz2             0.1       0.6       1.2       2.3       2.1       0.7
 1 F  dxz             0.0       4.6       3.5      17.1       5.8       3.3
 1 F  dyz             0.0       1.6       0.9       3.3       3.4       0.0
 1 F  dx2y2           0.2       0.2       0.4       0.8       0.7       0.2
 1 F  dxy             0.0       3.5       4.6       7.6      18.3       0.4
 2 F  s               0.5       2.2       2.1       0.0       0.0       0.0
 2 F  pz              0.3       6.9       5.7       0.4       0.1       0.0
 2 F  px              5.8       0.2       0.1       2.4       1.1       0.5
 2 F  py              0.0       2.1       3.2       0.7       0.0       3.8
 2 F  dz2             1.5       0.7       0.1       5.1       1.8       0.1
 2 F  dxz             2.9       0.0       0.1       6.0       2.8       1.2
 2 F  dyz             0.0       4.9       5.1       5.7       0.0      26.1
 2 F  dx2y2           5.0       0.1       0.5       8.6       4.6       3.4
 2 F  dxy             0.0       0.1       0.1       0.0       0.0       0.6
 3 F  s               0.6       3.9       0.3       0.0       0.0       0.0
 3 F  pz              0.1       5.7       1.9       0.9       0.6       1.7
 3 F  px              5.9       0.3       0.0       3.3       0.7       0.0
 3 F  py              0.3       6.3       3.8       0.0       0.8       0.9
 3 F  dz2             1.7       1.2       5.6      13.7       2.4      10.4
 3 F  dxz             0.9       0.1       0.1       3.3       0.2       0.1
 3 F  dyz             0.0       0.4       1.1       0.8       1.2       2.4
 3 F  dx2y2           4.6       0.4       3.0       8.0      10.5       5.9
 3 F  dxy             2.0       0.1       0.1       4.9       1.8       0.3
 4 F  s               0.5       0.3       4.0       0.0       0.0       0.0
 4 F  pz              0.1       2.6       4.0       0.0       0.0       3.7
 4 F  px              5.8       0.0       0.3       0.1       3.7       0.3
 4 F  py              0.2       3.2       8.1       0.0       0.7       0.5
 4 F  dz2             1.6       4.2       0.8       0.0       1.6      18.6
 4 F  dxz             0.5       0.2       0.1       0.0       1.3       1.0
 4 F  dyz             0.0       3.4       0.6       0.1       0.6      11.9
 4 F  dx2y2           4.9       2.0       0.4       0.6      20.9       1.1
 4 F  dxy             2.4       0.1       0.0       0.2       7.9       0.2

                     60        61        62        63        64        65   
                   2.64241   2.94348   2.94349   2.94349   3.16173   3.16173
                   0.00000   0.00000   0.00000   0.00000   0.00000   0.00000
                  --------  --------  --------  --------  --------  --------
 0 C  s              22.4       0.0       0.0       0.0       0.0       0.0
 0 C  pz              0.0       1.7       3.5       0.1       0.0       0.0
 0 C  px              0.0       0.2       0.4       4.7       0.0       0.0
 0 C  py              0.0       3.3       1.4       0.6       0.0       0.0
 0 C  dz2             0.0       4.4       9.9       4.9       9.0       4.7
 0 C  dxz             0.0       2.8       5.6       0.1      16.1      20.5
 0 C  dyz             0.0       7.2       7.9       2.1       6.3      12.1
 0 C  dx2y2           0.0       5.9       0.0      17.7       3.0       1.6
 0 C  dxy             0.0       5.4       2.2       0.9      20.5      16.1
 1 F  s              10.9       0.8       1.5      15.8       0.0       0.0
 1 F  pz              0.0       0.5       1.0       0.0       0.2       0.3
 1 F  px              0.0       0.2       0.3       3.5       0.0       0.0
 1 F  py              0.0       0.9       0.4       0.2       0.3       0.2
 1 F  dz2             2.1       1.8       0.6       0.9       0.0       0.0
 1 F  dxz             0.0       2.7       5.5       0.1       4.7       6.0
 1 F  dyz             0.0       1.4       1.5       0.4       0.0       0.0
 1 F  dx2y2           6.4       0.1       1.2       2.3       0.0       0.0
 1 F  dxy             0.0       5.3       2.2       0.9       6.0       4.7
 2 F  s              10.9       5.0      12.1       0.9       0.0       0.0
 2 F  pz              0.0       0.8       2.3       0.6       0.0       0.0
 2 F  px              0.0       0.6       0.3       0.8       0.2       0.2
 2 F  py              0.0       0.7       0.6       0.1       0.2       0.2
 2 F  dz2             5.8       0.1       1.3       4.1       2.4       0.9
 2 F  dxz             2.5       3.3       0.5       5.1       2.9       3.1
 2 F  dyz             0.1       2.5       1.9       0.2       4.4       5.5
 2 F  dx2y2           0.1       0.0       0.0       0.6       0.6       1.1
 2 F  dxy             0.0       3.5       2.5       1.1       0.5       0.2
 3 F  s              10.9       1.1       9.7       7.2       0.0       0.0
 3 F  pz              0.0       1.2       0.2       0.8       0.3       0.0
 3 F  px              0.0       0.3       1.2       0.3       0.0       0.4
 3 F  py              0.0       0.2       1.5       1.4       0.1       0.1
 3 F  dz2             0.1       2.9       0.2       0.1       7.1       0.0
 3 F  dxz             0.8       7.0       0.2       0.4       0.1       2.3
 3 F  dyz             4.4       0.3       0.1       5.3       1.8       0.3
 3 F  dx2y2           1.6       0.7       0.5       0.7       0.9       4.8
 3 F  dxy             1.7       0.2       6.3       1.9       0.9       3.5
 4 F  s              10.9      17.2       0.7       0.1       0.0       0.0
 4 F  pz              0.0       0.4       1.5       0.0       0.0       0.4
 4 F  px              0.0       0.6       0.0       1.1       0.4       0.0
 4 F  py              0.0       2.9       0.0       0.4       0.1       0.1
 4 F  dz2             0.5       0.3       1.1       1.7       0.0       4.9
 4 F  dxz             0.5       0.0       4.3       3.0       1.5       0.2
 4 F  dyz             3.1       0.5       3.4       1.4       0.0       4.4
 4 F  dx2y2           2.4       1.1       0.2       1.0       5.1       0.4
 4 F  dxy             2.0       2.0       2.3       4.3       4.1       0.9

                     66        67        68        69   
                   3.39733   3.43570   3.43570   3.43570
                   0.00000   0.00000   0.00000   0.00000
                  --------  --------  --------  --------
 0 C  s              24.4       0.0       0.0       0.0
 0 C  pz              0.0       0.8       4.6       3.9
 0 C  px              0.0       7.2       2.0       0.1
 0 C  py              0.0       1.2       2.7       5.3
 0 C  dz2             0.0       6.5       0.5       7.0
 0 C  dxz             0.0       0.6       3.1       2.6
 0 C  dyz             0.0       2.2       5.8       4.4
 0 C  dx2y2           0.0       8.6       7.4       1.1
 0 C  dxy             0.0       0.8       1.8       3.6
 1 F  s               9.8       9.9       2.7       0.1
 1 F  pz              0.0       0.1       0.4       0.4
 1 F  px              1.6       6.0       1.6       0.1
 1 F  py              0.0       0.1       0.3       0.5
 1 F  dz2             1.9       4.8       1.1       0.1
 1 F  dxz             0.0       0.4       2.0       1.7
 1 F  dx2y2           5.6      13.8       4.0       0.1
 1 F  dxy             0.0       0.5       1.2       2.3
 2 F  s               9.8       3.8       2.8       6.1
 2 F  pz              1.4       1.5       2.1       3.2
 2 F  px              0.2       1.3       0.0       0.3
 2 F  py              0.0       0.1       0.2       0.6
 2 F  dz2             5.1       2.2       7.5       7.7
 2 F  dxz             2.2       7.1       0.1       2.4
 2 F  dyz             0.1       0.2       0.6       2.8
 2 F  dx2y2           0.1       0.4       0.0       0.0
 2 F  dxy             0.0       0.0       0.2       0.5
 3 F  s               9.8       0.3      11.4       1.0
 3 F  pz              0.5       0.2       2.5       0.1
 3 F  px              0.2       0.6       1.0       0.1
 3 F  py              1.0       0.3       3.5       1.2
 3 F  dz2             0.0       0.1       0.0       2.3
 3 F  dxz             0.7       0.4       3.0       0.0
 3 F  dyz             3.8       1.4      11.6       0.1
 3 F  dx2y2           1.4       1.5       2.6       2.0
 3 F  dxy             1.5       1.0       4.7       1.1
 4 F  s               9.8       2.9       0.0       9.7
 4 F  pz              0.3       0.0       0.4       1.6
 4 F  px              0.2       1.2       0.2       0.2
 4 F  py              1.2       1.2       0.3       4.3
 4 F  dz2             0.5       1.4       1.1       0.5
 4 F  dxz             0.4       0.6       0.9       0.8
 4 F  dyz             2.7       0.3       0.4       9.6
 4 F  dx2y2           2.1       0.5       1.4       6.3
 4 F  dxy             1.8       5.8       0.1       2.0


                      *****************************
                      * MAYER POPULATION ANALYSIS *
                      *****************************

  NA   - Mulliken gross atomic population
  ZA   - Total nuclear charge
  QA   - Mulliken gross atomic charge
  VA   - Mayer's total valence
  BVA  - Mayer's bonded valence
  FA   - Mayer's free valence

  ATOM       NA         ZA         QA         VA         BVA        FA
  0 C      4.5163     6.0000     1.4837     3.7091     3.7091     0.0000
  1 F      9.3709     9.0000    -0.3709     0.9548     0.9548    -0.0000
  2 F      9.3709     9.0000    -0.3709     0.9548     0.9548    -0.0000
  3 F      9.3709     9.0000    -0.3709     0.9548     0.9548    -0.0000
  4 F      9.3709     9.0000    -0.3709     0.9548     0.9548    -0.0000

  Mayer bond orders larger than 0.100000
B(  0-C ,  1-F ) :   0.9273 B(  0-C ,  2-F ) :   0.9273 B(  0-C ,  3-F ) :   0.9273 
B(  0-C ,  4-F ) :   0.9273 

-------
TIMINGS
-------

Total SCF time: 0 days 0 hours 0 min 1 sec 

Total time                  ....       1.440 sec
Sum of individual times     ....       1.174 sec  ( 81.5%)

Fock matrix formation       ....       0.594 sec  ( 41.3%)
Diagonalization             ....       0.003 sec  (  0.2%)
Density matrix formation    ....       0.000 sec  (  0.0%)
Population analysis         ....       0.570 sec  ( 39.6%)
Initial guess               ....       0.003 sec  (  0.2%)
Orbital Transformation      ....       0.000 sec  (  0.0%)
Orbital Orthonormalization  ....       0.000 sec  (  0.0%)
DIIS solution               ....       0.000 sec  (  0.0%)
SOSCF solution              ....       0.004 sec  (  0.3%)

Maximum memory used throughout the entire SCF-calculation: 229.8 MB

-------------------------   --------------------
FINAL SINGLE POINT ENERGY      -435.641030546421
-------------------------   --------------------

                                *** OPTIMIZATION RUN DONE ***

                            ***************************************
                            *     ORCA property calculations      *
                            ***************************************

                                    ---------------------
                                    Active property flags
                                    ---------------------
   (+) Dipole Moment


------------------------------------------------------------------------------
                       ORCA ELECTRIC PROPERTIES CALCULATION
------------------------------------------------------------------------------

Dipole Moment Calculation                       ... on
Quadrupole Moment Calculation                   ... off
Polarizability Calculation                      ... off
GBWName                                         ... result.gbw
Electron density                                ... result.scfp
----------------------
SHARK INTEGRAL PACKAGE
----------------------

Number of atoms                             ...      5
Number of basis functions                   ...     70
Number of shells                            ...     30
Maximum angular momentum                    ...      2
Integral batch strategy                     ... SHARK/LIBINT Hybrid
RI-J (if used) integral strategy            ... SPLIT-RIJ (Revised 2003 algorithm where possible)
Printlevel                                  ...      2
Contraction scheme used                     ... SEGMENTED contraction
Coulomb Range Separation                    ... NOT USED
Exchange Range Separation                   ... NOT USED
Finite Nucleus Model                        ... NOT USED
Auxiliary Coulomb fitting basis             ... NOT available
Auxiliary J/K fitting basis                 ... NOT available
Auxiliary Correlation fitting basis         ... NOT available
Auxiliary 'external' fitting basis          ... NOT available
Integral threshold                          ...     2.500000e-11
Primitive cut-off                           ...     2.500000e-12
Primitive pair pre-selection threshold      ...     2.500000e-12

The origin for moment calculation is the CENTER OF MASS  = (-0.987424, -0.030931  0.000000)

-------------
DIPOLE MOMENT
-------------
                                X             Y             Z
Electronic contribution:      0.00000      -0.00000      -0.00000
Nuclear contribution   :      0.00000      -0.00000      -0.00000
                        -----------------------------------------
Total Dipole Moment    :      0.00000      -0.00000      -0.00000
                        -----------------------------------------
Magnitude (a.u.)       :      0.00001
Magnitude (Debye)      :      0.00001



--------------------
Rotational spectrum 
--------------------
 
Rotational constants in cm-1:     0.196288     0.196288     0.196288 
Rotational constants in MHz :  5884.576643  5884.573870  5884.565656 

 Dipole components along the rotational axes: 
x,y,z [a.u.] :     0.000005    -0.000002     0.000003 
x,y,z [Debye]:     0.000012    -0.000006     0.000007 

 

Timings for individual modules:

Sum of individual times         ...       32.304 sec (=   0.538 min)
GTO integral calculation        ...        1.157 sec (=   0.019 min)   3.6 %
SCF iterations                  ...       20.372 sec (=   0.340 min)  63.1 %
SCF Gradient evaluation         ...       10.338 sec (=   0.172 min)  32.0 %
Geometry relaxation             ...        0.438 sec (=   0.007 min)   1.4 %
                             ****ORCA TERMINATED NORMALLY****
TOTAL RUN TIME: 0 days 0 hours 0 minutes 40 seconds 403 msec
