
                                 *****************
                                 * O   R   C   A *
                                 *****************

                                            #,                                       
                                            ###                                      
                                            ####                                     
                                            #####                                    
                                            ######                                   
                                           ########,                                 
                                     ,,################,,,,,                         
                               ,,#################################,,                 
                          ,,##########################################,,             
                       ,#########################################, ''#####,          
                    ,#############################################,,   '####,        
                  ,##################################################,,,,####,       
                ,###########''''           ''''###############################       
              ,#####''   ,,,,##########,,,,          '''####'''          '####       
            ,##' ,,,,###########################,,,                        '##       
           ' ,,###''''                  '''############,,,                           
         ,,##''                                '''############,,,,        ,,,,,,###''
      ,#''                                            '''#######################'''  
     '                                                          ''''####''''         
             ,#######,   #######,   ,#######,      ##                                
            ,#'     '#,  ##    ##  ,#'     '#,    #''#        ######   ,####,        
            ##       ##  ##   ,#'  ##            #'  '#       #        #'  '#        
            ##       ##  #######   ##           ,######,      #####,   #    #        
            '#,     ,#'  ##    ##  '#,     ,#' ,#      #,         ##   #,  ,#        
             '#######'   ##     ##  '#######'  #'      '#     #####' # '####'        



                  #######################################################
                  #                        -***-                        #
                  #          Department of theory and spectroscopy      #
                  #    Directorship and core code : Frank Neese         #
                  #        Max Planck Institute fuer Kohlenforschung    #
                  #                Kaiser Wilhelm Platz 1               #
                  #                 D-45470 Muelheim/Ruhr               #
                  #                      Germany                        #
                  #                                                     #
                  #                  All rights reserved                #
                  #                        -***-                        #
                  #######################################################


                         Program Version 5.0.1 -  RELEASE  -


 With contributions from (in alphabetic order):
   Daniel Aravena         : Magnetic Suceptibility
   Michael Atanasov       : Ab Initio Ligand Field Theory (pilot matlab implementation)
   Alexander A. Auer      : GIAO ZORA, VPT2 properties, NMR spectrum
   Ute Becker             : Parallelization
   Giovanni Bistoni       : ED, misc. LED, open-shell LED, HFLD
   Martin Brehm           : Molecular dynamics
   Dmytro Bykov           : SCF Hessian
   Vijay G. Chilkuri      : MRCI spin determinant printing, contributions to CSF-ICE
   Dipayan Datta          : RHF DLPNO-CCSD density
   Achintya Kumar Dutta   : EOM-CC, STEOM-CC
   Dmitry Ganyushin       : Spin-Orbit,Spin-Spin,Magnetic field MRCI
   Miquel Garcia          : C-PCM and meta-GGA Hessian, CC/C-PCM, Gaussian charge scheme
   Yang Guo               : DLPNO-NEVPT2, F12-NEVPT2, CIM, IAO-localization
   Andreas Hansen         : Spin unrestricted coupled pair/coupled cluster methods
   Benjamin Helmich-Paris : MC-RPA, TRAH-SCF, COSX integrals
   Lee Huntington         : MR-EOM, pCC
   Robert Izsak           : Overlap fitted RIJCOSX, COSX-SCS-MP3, EOM
   Marcus Kettner         : VPT2
   Christian Kollmar      : KDIIS, OOCD, Brueckner-CCSD(T), CCSD density, CASPT2, CASPT2-K
   Simone Kossmann        : Meta GGA functionals, TD-DFT gradient, OOMP2, MP2 Hessian
   Martin Krupicka        : Initial AUTO-CI
   Lucas Lang             : DCDCAS
   Marvin Lechner         : AUTO-CI (C++ implementation), FIC-MRCC
   Dagmar Lenk            : GEPOL surface, SMD
   Dimitrios Liakos       : Extrapolation schemes; Compound Job, initial MDCI parallelization
   Dimitrios Manganas     : Further ROCIS development; embedding schemes
   Dimitrios Pantazis     : SARC Basis sets
   Anastasios Papadopoulos: AUTO-CI, single reference methods and gradients
   Taras Petrenko         : DFT Hessian,TD-DFT gradient, ASA, ECA, R-Raman, ABS, FL, XAS/XES, NRVS
   Peter Pinski           : DLPNO-MP2, DLPNO-MP2 Gradient
   Christoph Reimann      : Effective Core Potentials
   Marius Retegan         : Local ZFS, SOC
   Christoph Riplinger    : Optimizer, TS searches, QM/MM, DLPNO-CCSD(T), (RO)-DLPNO pert. Triples
   Tobias Risthaus        : Range-separated hybrids, TD-DFT gradient, RPA, STAB
   Michael Roemelt        : Original ROCIS implementation
   Masaaki Saitow         : Open-shell DLPNO-CCSD energy and density
   Barbara Sandhoefer     : DKH picture change effects
   Avijit Sen             : IP-ROCIS
   Kantharuban Sivalingam : CASSCF convergence, NEVPT2, FIC-MRCI
   Bernardo de Souza      : ESD, SOC TD-DFT
   Georgi Stoychev        : AutoAux, RI-MP2 NMR, DLPNO-MP2 response
   Willem Van den Heuvel  : Paramagnetic NMR
   Boris Wezisla          : Elementary symmetry handling
   Frank Wennmohs         : Technical directorship


 We gratefully acknowledge several colleagues who have allowed us to
 interface, adapt or use parts of their codes:
   Stefan Grimme, W. Hujo, H. Kruse, P. Pracht,  : VdW corrections, initial TS optimization,
                  C. Bannwarth, S. Ehlert          DFT functionals, gCP, sTDA/sTD-DF
   Ed Valeev, F. Pavosevic, A. Kumar             : LibInt (2-el integral package), F12 methods
   Garnet Chan, S. Sharma, J. Yang, R. Olivares  : DMRG
   Ulf Ekstrom                                   : XCFun DFT Library
   Mihaly Kallay                                 : mrcc  (arbitrary order and MRCC methods)
   Jiri Pittner, Ondrej Demel                    : Mk-CCSD
   Frank Weinhold                                : gennbo (NPA and NBO analysis)
   Christopher J. Cramer and Donald G. Truhlar   : smd solvation model
   Lars Goerigk                                  : TD-DFT with DH, B97 family of functionals
   V. Asgeirsson, H. Jonsson                     : NEB implementation
   FAccTs GmbH                                   : IRC, NEB, NEB-TS, DLPNO-Multilevel, CI-OPT
                                                   MM, QMMM, 2- and 3-layer-ONIOM, Crystal-QMMM,
                                                   LR-CPCM, SF, NACMEs, symmetry and pop. for TD-DFT,
                                                   nearIR, NL-DFT gradient (VV10), updates on ESD,
                                                   ML-optimized integration grids
   S Lehtola, MJT Oliveira, MAL Marques          : LibXC Library
   Liviu Ungur et al                             : ANISO software


 Your calculation uses the libint2 library for the computation of 2-el integrals
 For citations please refer to: http://libint.valeyev.net

 Your ORCA version has been built with support for libXC version: 5.1.0
 For citations please refer to: https://tddft.org/programs/libxc/

 This ORCA versions uses:
   CBLAS   interface :  Fast vector & matrix operations
   LAPACKE interface :  Fast linear algebra routines
   SCALAPACK package :  Parallel linear algebra routines
   Shared memory     :  Shared parallel matrices
   BLAS/LAPACK       :  OpenBLAS 0.3.15  USE64BITINT DYNAMIC_ARCH NO_AFFINITY Haswell SINGLE_THREADED
        Core in use  :  Haswell
   Copyright (c) 2011-2014, The OpenBLAS Project


================================================================================

----- Orbital basis set information -----
Your calculation utilizes the basis: 6-31G(d)
   H-He, Li-Ne : W. J. Hehre, R. Ditchfield and J.A. Pople, J. Chem. Phys. 56, 2257 (1972).
                 Note: He and Ne are unpublished basis sets taken from the Gaussian program.
                 Note: Li and B from J. D. Dill and J. A. Pople, J. Chem. Phys. 62, 2921 (1975).
   Na - Ar     : M. M. Francl, W. J. Pietro, W. J. Hehre, J. S. Binkley, M. S. Gordon, 
                 D. J. DeFrees and J. A. Pople, J. Chem. Phys. 77, 3654 (1982).
   K - Zn      : V. A. Rassolov, J. A. Pople, M. A. Ratner, and T. L. Windus, J. Chem. Phys. 109, 1223 (1998).

================================================================================
                                        WARNINGS
                       Please study these warnings very carefully!
================================================================================


WARNING: Geometry Optimization
  ===> : Switching off AutoStart
         For restart on a previous wavefunction, please use MOREAD

INFO   : the flag for use of the SHARK integral package has been found!

================================================================================
                                       INPUT FILE
================================================================================
NAME = result.inp
|  1> # avogadro generated ORCA input file 
|  2> # Basic Mode
|  3> # CH4
|  4> ! HF OPT 6-31g(d) LargePrint
|  5> 
|  6> * xyz 0 1
|  7>    C       -0.64248        0.35944        0.00000
|  8>    H        0.42752        0.35944        0.00000
|  9>    H       -0.99914        0.72021       -0.94209
| 10>    H       -0.99915        0.99493        0.78348
| 11>    H       -0.99915       -0.63682        0.15861
| 12> *
| 13> 
| 14> 
| 15>                          ****END OF INPUT****
================================================================================

                       *****************************
                       * Geometry Optimization Run *
                       *****************************

Geometry optimization settings:
Update method            Update   .... BFGS
Choice of coordinates    CoordSys .... Z-matrix Internals
Initial Hessian          InHess   .... Almoef's Model

Convergence Tolerances:
Energy Change            TolE     ....  5.0000e-06 Eh
Max. Gradient            TolMAXG  ....  3.0000e-04 Eh/bohr
RMS Gradient             TolRMSG  ....  1.0000e-04 Eh/bohr
Max. Displacement        TolMAXD  ....  4.0000e-03 bohr
RMS Displacement         TolRMSD  ....  2.0000e-03 bohr
Strict Convergence                ....  False
------------------------------------------------------------------------------
                        ORCA OPTIMIZATION COORDINATE SETUP
------------------------------------------------------------------------------

The optimization will be done in new redundant internal coordinates
Making redundant internal coordinates   ...  (new redundants) done
Evaluating the initial hessian          ...  (Almloef) done
Evaluating the coordinates              ...  done
Calculating the B-matrix                .... done
Calculating the G-matrix                .... done
Diagonalizing the G-matrix              .... done
The first mode is                       ....    1
The number of degrees of freedom        ....    9

    -----------------------------------------------------------------
                    Redundant Internal Coordinates


    -----------------------------------------------------------------
         Definition                    Initial Value    Approx d2E/dq
    -----------------------------------------------------------------
      1. B(H   1,C   0)                  1.0700         0.387554   
      2. B(H   2,C   0)                  1.0700         0.387557   
      3. B(H   3,C   0)                  1.0700         0.387552   
      4. B(H   4,C   0)                  1.0700         0.387551   
      5. A(H   1,C   0,H   3)          109.4714         0.297665   
      6. A(H   2,C   0,H   3)          109.4712         0.297666   
      7. A(H   1,C   0,H   4)          109.4714         0.297665   
      8. A(H   2,C   0,H   4)          109.4714         0.297665   
      9. A(H   3,C   0,H   4)          109.4711         0.297665   
     10. A(H   1,C   0,H   2)          109.4709         0.297666   
    -----------------------------------------------------------------

Number of atoms                         .... 5
Number of degrees of freedom            .... 10

         *************************************************************
         *                GEOMETRY OPTIMIZATION CYCLE   1            *
         *************************************************************
---------------------------------
CARTESIAN COORDINATES (ANGSTROEM)
---------------------------------
  C     -0.642480    0.359440    0.000000
  H      0.427520    0.359440    0.000000
  H     -0.999140    0.720210   -0.942090
  H     -0.999150    0.994930    0.783480
  H     -0.999150   -0.636820    0.158610

----------------------------
CARTESIAN COORDINATES (A.U.)
----------------------------
  NO LB      ZA    FRAG     MASS         X           Y           Z
   0 C     6.0000    0    12.011   -1.214111    0.679243    0.000000
   1 H     1.0000    0     1.008    0.807896    0.679243    0.000000
   2 H     1.0000    0     1.008   -1.888101    1.361000   -1.780292
   3 H     1.0000    0     1.008   -1.888120    1.880145    1.480563
   4 H     1.0000    0     1.008   -1.888120   -1.203415    0.299729

--------------------------------
INTERNAL COORDINATES (ANGSTROEM)
--------------------------------
 C      0   0   0     0.000000000000     0.00000000     0.00000000
 H      1   0   0     1.070000000000     0.00000000     0.00000000
 H      1   2   0     1.069997624577   109.47088697     0.00000000
 H      1   2   3     1.070000906261   109.47139280   240.00008497
 H      1   2   3     1.070002153549   109.47136918   120.00004518

---------------------------
INTERNAL COORDINATES (A.U.)
---------------------------
 C      0   0   0     0.000000000000     0.00000000     0.00000000
 H      1   0   0     2.022006963296     0.00000000     0.00000000
 H      1   2   0     2.022002474396   109.47088697     0.00000000
 H      1   2   3     2.022008675881   109.47139280   240.00008497
 H      1   2   3     2.022011032914   109.47136918   120.00004518

---------------------
BASIS SET INFORMATION
---------------------
There are 2 groups of distinct atoms

 Group   1 Type C   : 10s4p1d contracted to 3s2p1d pattern {631/31/1}
 Group   2 Type H   : 4s contracted to 2s pattern {31}

Atom   0C    basis set group =>   1
Atom   1H    basis set group =>   2
Atom   2H    basis set group =>   2
Atom   3H    basis set group =>   2
Atom   4H    basis set group =>   2

-------------------------
BASIS SET IN INPUT FORMAT
-------------------------

 # Basis set for element : H 
 NewGTO H 
 S 3 
   1      18.7311370000      0.0334945995
   2       2.8253937000      0.2347269467
   3       0.6401217000      0.8137573184
 S 1 
   1       0.1612778000      1.0000000000
  end;

 # Basis set for element : C 
 NewGTO C 
 S 6 
   1    3047.5249000000      0.0018347002
   2     457.3695100000      0.0140373012
   3     103.9486900000      0.0688426061
   4      29.2101550000      0.2321844206
   5       9.2866630000      0.4679413416
   6       3.1639270000      0.3623120322
 S 3 
   1       7.8682724000     -0.1193324086
   2       1.8812885000     -0.1608542116
   3       0.5442493000      1.1434564826
 P 3 
   1       7.8682724000      0.0689990956
   2       1.8812885000      0.3164239798
   3       0.5442493000      0.7443082524
 S 1 
   1       0.1687144000      1.0000000000
 P 1 
   1       0.1687144000      1.0000000000
 D 1 
   1       0.8000000000      1.0000000000
  end;

------------------------------------------------------------------------------
                           ORCA GTO INTEGRAL CALCULATION
------------------------------------------------------------------------------
------------------------------------------------------------------------------
                   ___                                                        
                  /   \      - P O W E R E D   B Y -                         
                 /     \                                                     
                 |  |  |   _    _      __       _____    __    __             
                 |  |  |  | |  | |    /  \     |  _  \  |  |  /  |          
                  \  \/   | |  | |   /    \    | | | |  |  | /  /          
                 / \  \   | |__| |  /  /\  \   | |_| |  |  |/  /          
                |  |  |   |  __  | /  /__\  \  |    /   |      \           
                |  |  |   | |  | | |   __   |  |    \   |  |\   \          
                \     /   | |  | | |  |  |  |  | |\  \  |  | \   \       
                 \___/    |_|  |_| |__|  |__|  |_| \__\ |__|  \__/        
                                                                              
                      - O R C A' S   B I G   F R I E N D -                    
                                      &                                       
                       - I N T E G R A L  F E E D E R -                       
                                                                              
 v1 FN, 2020, v2 2021                                                         
------------------------------------------------------------------------------


Reading SHARK input file result.SHARKINP.tmp ... ok
----------------------
SHARK INTEGRAL PACKAGE
----------------------

Number of atoms                             ...      5
Number of basis functions                   ...     22
Number of shells                            ...     14
Maximum angular momentum                    ...      2
Integral batch strategy                     ... SHARK/LIBINT Hybrid
RI-J (if used) integral strategy            ... SPLIT-RIJ (Revised 2003 algorithm where possible)
Printlevel                                  ...      2
Contraction scheme used                     ... SEGMENTED contraction
Coulomb Range Separation                    ... NOT USED
Exchange Range Separation                   ... NOT USED
Finite Nucleus Model                        ... NOT USED
Auxiliary Coulomb fitting basis             ... NOT available
Auxiliary J/K fitting basis                 ... NOT available
Auxiliary Correlation fitting basis         ... NOT available
Auxiliary 'external' fitting basis          ... NOT available
Integral threshold                          ...     2.500000e-11
Primitive cut-off                           ...     2.500000e-12
Primitive pair pre-selection threshold      ...     2.500000e-12

Calculating pre-screening integrals         ... done (  0.0 sec) Dimension = 14
Organizing shell pair data                  ... done (  0.0 sec)
Shell pair information
Total number of shell pairs                 ...       105
Shell pairs after pre-screening             ...       105
Total number of primitive shell pairs       ...       529
Primitive shell pairs kept                  ...       495
          la=0 lb=0:     66 shell pairs
          la=1 lb=0:     22 shell pairs
          la=1 lb=1:      3 shell pairs
          la=2 lb=0:     11 shell pairs
          la=2 lb=1:      2 shell pairs
          la=2 lb=2:      1 shell pairs

Calculating one electron integrals          ... done (  0.0 sec)
Calculating Nuclear repulsion               ... done (  0.0 sec) ENN=     13.686515769425 Eh

SHARK setup successfully completed in   0.1 seconds

Maximum memory used throughout the entire GTOINT-calculation: 7.5 MB
-------------------------------------------------------------------------------
                                 ORCA SCF
-------------------------------------------------------------------------------

------------
SCF SETTINGS
------------
Hamiltonian:
 Ab initio Hamiltonian  Method          .... Hartree-Fock(GTOs)


General Settings:
 Integral files         IntName         .... result
 Hartree-Fock type      HFTyp           .... RHF
 Total Charge           Charge          ....    0
 Multiplicity           Mult            ....    1
 Number of Electrons    NEL             ....   10
 Basis Dimension        Dim             ....   22
 Nuclear Repulsion      ENuc            ....     13.6865157694 Eh

Convergence Acceleration:
 DIIS                   CNVDIIS         .... on
   Start iteration      DIISMaxIt       ....    12
   Startup error        DIISStart       ....  0.200000
   # of expansion vecs  DIISMaxEq       ....     5
   Bias factor          DIISBfac        ....   1.050
   Max. coefficient     DIISMaxC        ....  10.000
 Trust-Rad. Augm. Hess. CNVTRAH         .... auto
   Auto Start mean grad. ratio tolernc. ....  1.125000
   Auto Start start iteration           ....    20
   Auto Start num. interpolation iter.  ....    10
   Max. Number of Micro iterations      ....    16
   Max. Number of Macro iterations      .... Maxiter - #DIIS iter
   Number of Davidson start vectors     ....     2
   Converg. threshold I  (grad. norm)   ....   1.000e-05
   Converg. threshold II (energy diff.) ....   1.000e-08
   Grad. Scal. Fac. for Micro threshold ....   0.100
   Minimum threshold for Micro iter.    ....   0.010
   NR start threshold (gradient norm)   ....   0.001
   Initial trust radius                 ....   0.400
   Minimum AH scaling param. (alpha)    ....   1.000
   Maximum AH scaling param. (alpha)    .... 1000.000
   Orbital update algorithm             .... Taylor
   White noise on init. David. guess    .... on
   Maximum white noise                  ....   0.010
   Quad. conv. algorithm                .... NR
 SOSCF                  CNVSOSCF        .... on
   Start iteration      SOSCFMaxIt      ....   150
   Startup grad/error   SOSCFStart      ....  0.003300
 Level Shifting         CNVShift        .... on
   Level shift para.    LevelShift      ....    0.2500
   Turn off err/grad.   ShiftErr        ....    0.0010
 Zerner damping         CNVZerner       .... off
 Static damping         CNVDamp         .... on
   Fraction old density DampFac         ....    0.7000
   Max. Damping (<1)    DampMax         ....    0.9800
   Min. Damping (>=0)   DampMin         ....    0.0000
   Turn off err/grad.   DampErr         ....    0.1000
 Fernandez-Rico         CNVRico         .... off

SCF Procedure:
 Maximum # iterations   MaxIter         ....   125
 SCF integral mode      SCFMode         .... Direct
   Integral package                     .... SHARK and LIBINT hybrid scheme
 Reset frequency        DirectResetFreq ....    20
 Integral Threshold     Thresh          ....  2.500e-11 Eh
 Primitive CutOff       TCut            ....  2.500e-12 Eh

Convergence Tolerance:
 Convergence Check Mode ConvCheckMode   .... Total+1el-Energy
 Convergence forced     ConvForced      .... 0
 Energy Change          TolE            ....  1.000e-08 Eh
 1-El. energy change                    ....  1.000e-05 Eh
 Orbital Gradient       TolG            ....  1.000e-05
 Orbital Rotation angle TolX            ....  1.000e-05
 DIIS Error             TolErr          ....  5.000e-07


Diagonalization of the overlap matrix:
Smallest eigenvalue                        ... 1.922e-02
Time for diagonalization                   ...    0.000 sec
Threshold for overlap eigenvalues          ... 1.000e-08
Number of eigenvalues below threshold      ... 0
Time for construction of square roots      ...    0.005 sec
Total time needed                          ...    0.005 sec

----------------------
SHARK INTEGRAL PACKAGE
----------------------

Number of atoms                             ...      5
Number of basis functions                   ...     22
Number of shells                            ...     14
Maximum angular momentum                    ...      2
Integral batch strategy                     ... SHARK/LIBINT Hybrid
RI-J (if used) integral strategy            ... SPLIT-RIJ (Revised 2003 algorithm where possible)
Printlevel                                  ...      2
Contraction scheme used                     ... SEGMENTED contraction
Coulomb Range Separation                    ... NOT USED
Exchange Range Separation                   ... NOT USED
Finite Nucleus Model                        ... NOT USED
Auxiliary Coulomb fitting basis             ... NOT available
Auxiliary J/K fitting basis                 ... NOT available
Auxiliary Correlation fitting basis         ... NOT available
Auxiliary 'external' fitting basis          ... NOT available
Integral threshold                          ...     2.500000e-11
Primitive cut-off                           ...     2.500000e-12
Primitive pair pre-selection threshold      ...     2.500000e-12

Time for model grid setup =    0.020 sec

------------------------------
INITIAL GUESS: MODEL POTENTIAL
------------------------------
Loading Hartree-Fock densities                     ... done
Calculating cut-offs                               ... done
Initializing the effective Hamiltonian             ... done
Setting up the integral package (SHARK)            ... done
Starting the Coulomb interaction                   ...     -> Generating integrals - 
    -> L=0 0 :     0.001 sec done=      2046 skipped=         0 prim-skipped=         0
    -> L=1 0 :     0.000 sec done=       682 skipped=         0 prim-skipped=         0
    -> L=1 1 :     0.000 sec done=        93 skipped=         0 prim-skipped=         0
    -> L=2 0 :     0.000 sec done=       341 skipped=         0 prim-skipped=         0
    -> L=2 1 :     0.000 sec done=        62 skipped=         0 prim-skipped=         0
    -> L=2 2 :     0.000 sec done=        31 skipped=         0 prim-skipped=         0
done (   0.0 sec)
Reading the grid                                   ... done
Mapping shells                                     ... done
Starting the XC term evaluation                    ... done (   0.0 sec)
Transforming the Hamiltonian                       ... done (   0.0 sec)
Diagonalizing the Hamiltonian                      ... done (   0.0 sec)
Back transforming the eigenvectors                 ... done (   0.0 sec)
Now organizing SCF variables                       ... done
                      ------------------
                      INITIAL GUESS DONE (   0.1 sec)
                      ------------------
----------------------
INITIAL GUESS ORBITALS
----------------------
                      0         1         2         3         4         5   
                  -9.98291  -0.78136  -0.49084  -0.49077  -0.49076   0.03030
                   2.00000   2.00000   2.00000   2.00000   2.00000   0.00000
                  --------  --------  --------  --------  --------  --------
  0C   1s        -0.994060 -0.211581  0.000008  0.000012  0.000002 -0.152259
  0C   2s        -0.044876  0.438061  0.000105 -0.000065  0.000092  0.293085
  0C   1pz       -0.000001 -0.000110 -0.109521 -0.254375 -0.457592 -0.000745
  0C   1px       -0.000001 -0.000063 -0.359623 -0.303247  0.254680 -0.000346
  0C   1py        0.000000 -0.000013 -0.380552  0.359785 -0.108989 -0.000696
  0C   3s         0.036431  0.394992 -0.000258  0.000140 -0.000159  2.386605
  0C   2pz        0.000002  0.000134 -0.045397 -0.105308 -0.189147 -0.002616
  0C   2px        0.000001  0.000017 -0.148738 -0.125288  0.105207 -0.000806
  0C   2py       -0.000000  0.000106 -0.157293  0.148820 -0.044833 -0.001066
  0C   1dz2      -0.000001  0.000009 -0.001280  0.023907 -0.002514  0.000038
  0C   1dxz       0.000001  0.000015  0.003334  0.007630  0.013734 -0.000037
  0C   1dyz       0.000001 -0.000017 -0.011443 -0.002655 -0.019395 -0.000005
  0C   1dx2y2    -0.000000 -0.000004 -0.022293 -0.004412  0.013826  0.000018
  0C   1dxy       0.000001  0.000008  0.011476 -0.010767  0.003272 -0.000042
  1H   1s         0.001430  0.129960 -0.188949 -0.159362  0.133838 -0.045194
  1H   2s        -0.006971  0.008891 -0.099397 -0.084055  0.070560 -0.942879
  2H   1s         0.001431  0.129970  0.046251  0.234570  0.147816 -0.045745
  2H   2s        -0.006969  0.008982  0.024192  0.123388  0.077816 -0.947139
  3H   1s         0.001430  0.129949 -0.097907  0.067508 -0.254673 -0.044963
  3H   2s        -0.006971  0.008824 -0.051472  0.035521 -0.134308 -0.940694
  4H   1s         0.001430  0.129971  0.240604 -0.142739 -0.026899 -0.045403
  4H   2s        -0.006970  0.008981  0.126854 -0.075072 -0.014036 -0.945980
                      6         7         8         9        10        11   
                   0.06832   0.06833   0.06841   0.37994   0.38083   0.38110
                   0.00000   0.00000   0.00000   0.00000   0.00000   0.00000
                  --------  --------  --------  --------  --------  --------
  0C   1s        -0.000295 -0.000191 -0.000156 -0.000096  0.000006 -0.000038
  0C   2s         0.000290  0.000159  0.000115 -0.001651  0.001021 -0.002065
  0C   1pz        0.273549  0.028060  0.356954 -0.637893 -0.010971 -0.419227
  0C   1px       -0.133681  0.424963  0.068562 -0.085908  0.749979  0.109736
  0C   1py        0.332618  0.147505 -0.266109  0.411337  0.138859 -0.627248
  0C   3s         0.005106  0.003348  0.002739  0.004842 -0.002175  0.004724
  0C   2pz        0.723983  0.073404  0.948553  1.338012  0.024360  0.879152
  0C   2px       -0.354509  1.126385  0.184337  0.180997 -1.573450 -0.231348
  0C   2py        0.881842  0.392891 -0.704378 -0.861423 -0.292507  1.317230
  0C   1dz2      -0.017355  0.011869  0.029277  0.071755 -0.040209 -0.045001
  0C   1dxz       0.014543  0.001442  0.019035  0.052126  0.001181  0.034404
  0C   1dyz      -0.029814 -0.006993 -0.014877 -0.043991  0.006164 -0.076689
  0C   1dx2y2     0.004244 -0.038488  0.009526  0.027203  0.099970 -0.007764
  0C   1dxy       0.017729  0.007844 -0.014216 -0.033482 -0.011524  0.051574
  1H   1s         0.061926 -0.197516 -0.032505 -0.047629  0.407899  0.060319
  1H   2s         0.525869 -1.678262 -0.274114 -0.049698  0.424183  0.061184
  2H   1s         0.038643  0.053738  0.199034  0.395305 -0.103848  0.064645
  2H   2s         0.329127  0.457560  1.685895  0.411525 -0.108802  0.067352
  3H   1s        -0.205398  0.015375 -0.037847 -0.106278 -0.095444 -0.390361
  3H   2s        -1.747312  0.130549 -0.319903 -0.110835 -0.099028 -0.405493
  4H   1s         0.104173  0.128019 -0.128925 -0.242680 -0.208331  0.264294
  4H   2s         0.884841  1.085287 -1.095861 -0.255046 -0.214719  0.273484
                     12        13        14        15        16        17   
                   0.74411   0.74415   0.74421   0.81750   0.96798   1.40488
                   0.00000   0.00000   0.00000   0.00000   0.00000   0.00000
                  --------  --------  --------  --------  --------  --------
  0C   1s        -0.000137  0.000132  0.000011  0.095368  0.086634 -0.000004
  0C   2s        -0.002408  0.003386  0.001503 -0.961411  2.177478 -0.000089
  0C   1pz       -0.614205  0.293992  0.363184 -0.000023 -0.002260  0.000072
  0C   1px        0.108348  0.673078 -0.362767 -0.000027 -0.000989  0.000279
  0C   1py       -0.455779 -0.237221 -0.576439 -0.000268 -0.000100 -0.000008
  0C   3s         0.006589 -0.008725 -0.003496  1.471548 -5.572200  0.000167
  0C   2pz        1.025435 -0.490840 -0.606282  0.000103  0.004216  0.000079
  0C   2px       -0.180870 -1.123621  0.605775  0.000008  0.001777 -0.000171
  0C   2py        0.760745  0.396130  0.962397  0.000481  0.000562 -0.000041
  0C   1dz2       0.042769  0.173983  0.090023  0.000037  0.000020  0.432133
  0C   1dxz      -0.106147  0.051247  0.063161 -0.000052 -0.000032 -0.686983
  0C   1dyz       0.184452 -0.037853 -0.015134 -0.000023 -0.000194 -0.289480
  0C   1dx2y2    -0.012697 -0.132625  0.176899  0.000068  0.000015  0.250111
  0C   1dxy      -0.078674 -0.040872 -0.099778 -0.000103 -0.000095  0.441545
  1H   1s        -0.125530 -0.776637  0.417502  0.643795  0.335672 -0.000553
  1H   2s         0.263476  1.647723 -0.884614 -0.627593  1.070556  0.000394
  2H   1s        -0.405350  0.650883  0.455322  0.643740  0.333213  0.000419
  2H   2s         0.856597 -1.375917 -0.962820 -0.627561  1.076983 -0.000274
  3H   1s         0.871995  0.172906 -0.051843  0.643887  0.335459 -0.000154
  3H   2s        -1.849936 -0.363920  0.110222 -0.627958  1.070153  0.000047
  4H   1s        -0.343471 -0.045127 -0.821230  0.643227  0.335149  0.000142
  4H   2s         0.725032  0.098944  1.740429 -0.626544  1.072659 -0.000196
                     18        19        20        21   
                   1.40527   2.03657   2.03721   2.03744
                   0.00000   0.00000   0.00000   0.00000
                  --------  --------  --------  --------
  0C   1s        -0.000020 -0.000020 -0.000008 -0.000003
  0C   2s        -0.000294 -0.000858 -0.000274 -0.000072
  0C   1pz        0.000002 -0.156223 -0.030016 -0.085601
  0C   1px        0.000071 -0.038897 -0.131846  0.116824
  0C   1py       -0.000107  0.082221 -0.119415 -0.107428
  0C   3s         0.000736  0.001952  0.000669  0.000186
  0C   2pz       -0.000071 -0.390194 -0.074999 -0.214511
  0C   2px       -0.000266 -0.097322 -0.329992  0.293309
  0C   2py       -0.000203  0.204683 -0.299739 -0.269331
  0C   1dz2      -0.251269  0.765614  0.002426 -0.621530
  0C   1dxz      -0.441682  0.567875  0.109012  0.312113
  0C   1dyz      -0.499387 -0.522783 -0.418480 -0.645005
  0C   1dx2y2    -0.144970  0.158905 -0.958931  0.493376
  0C   1dxy      -0.686569 -0.298695  0.435812  0.391630
  1H   1s        -0.000249  0.191271  0.649240 -0.576073
  1H   2s         0.000215 -0.024178 -0.081208  0.071416
  2H   1s         0.000148 -0.876706 -0.148114 -0.000806
  2H   2s        -0.000356  0.109517  0.018679  0.000127
  3H   1s         0.000144  0.258851  0.241431  0.815194
  3H   2s        -0.000236 -0.032587 -0.030124 -0.101356
  4H   1s        -0.000487  0.426055 -0.742739 -0.238404
  4H   2s         0.000000 -0.054107  0.092154  0.029691
--------------
SCF ITERATIONS
--------------
               ***  Starting incremental Fock matrix formation  ***
===> SHARK/Fock/General/Sym: HFTyp=1 DoJ=1 DoX=1 facj= 2.000 facx=-0.500 NFock=1 NumOp=1 NMat=1 RangeSep=0 GeneralContraction=0 PGCOpt=0
    -> L=0 0 0 0:     0.001 sec done=      2211 (=100.0%) skipped=         0 
    -> L=1 0 0 0:     0.001 sec done=      1452 (=100.0%) skipped=         0 
    -> L=1 0 1 0:     0.000 sec done=       253 (=100.0%) skipped=         0 
    -> L=1 1 0 0:     0.000 sec done=       198 (=100.0%) skipped=         0 
    -> L=1 1 1 0:     0.000 sec done=        66 (=100.0%) skipped=         0 
    -> L=1 1 1 1:     0.000 sec done=         6 (=100.0%) skipped=         0 
    -> L=2 0 0 0:     0.001 sec done=       726 (=100.0%) skipped=         0 
    -> RHF LowL loop time =     0.005 sec
    -> L=2 0 1 0:     0.000 sec done=       242 (=100.0%) skipped=         0 
    -> L=2 0 1 1:     0.000 sec done=        33 (=100.0%) skipped=         0 
    -> L=2 0 2 0:     0.000 sec done=        66 (=100.0%) skipped=         0 
    -> L=2 1 0 0:     0.000 sec done=       132 (=100.0%) skipped=         0 
    -> L=2 1 1 0:     0.000 sec done=        44 (=100.0%) skipped=         0 
    -> L=2 1 2 0:     0.000 sec done=        22 (=100.0%) skipped=         0 
    -> L=2 2 0 0:     0.000 sec done=        66 (=100.0%) skipped=         0 
    ->Total SHARK integral loop time =    0.002 sec
    -> L=0 1 2 2:     0.000 sec done=        22 (=100.0%) skipped=         0 
    -> L=0 2 2 2:     0.000 sec done=        11 (=100.0%) skipped=         0 
    -> L=1 1 1 2:     0.000 sec done=         6 (=100.0%) skipped=         0 
    -> L=1 1 2 2:     0.000 sec done=         3 (=100.0%) skipped=         0 
    -> L=1 2 1 2:     0.000 sec done=         3 (=100.0%) skipped=         0 
    -> L=1 2 2 2:     0.000 sec done=         2 (=100.0%) skipped=         0 
    -> L=2 2 2 2:     0.000 sec done=         1 (=100.0%) skipped=         0 
    ->Total LIBINT loop time =    0.002 sec

                         ----------------------------
                         !        ITERATION     0   !
                         ----------------------------
   Total Energy        :     -40.084051543476 Eh
   Energy Change       :     -40.084051543476 Eh
   MAX-DP              :       0.064285393251
   RMS-DP              :       0.006350444122
   Actual Damping      :       0.7000
   Actual Level Shift  :       0.2500 Eh

===> SHARK/Fock/General/Sym: HFTyp=1 DoJ=1 DoX=1 facj= 2.000 facx=-0.500 NFock=1 NumOp=1 NMat=1 RangeSep=0 GeneralContraction=0 PGCOpt=0
    -> L=0 0 0 0:     0.001 sec done=      2211 (=100.0%) skipped=         0 
    -> L=1 0 0 0:     0.001 sec done=      1452 (=100.0%) skipped=         0 
    -> L=1 0 1 0:     0.000 sec done=       253 (=100.0%) skipped=         0 
    -> L=1 1 0 0:     0.000 sec done=       198 (=100.0%) skipped=         0 
    -> L=1 1 1 0:     0.000 sec done=        66 (=100.0%) skipped=         0 
    -> L=1 1 1 1:     0.000 sec done=         6 (=100.0%) skipped=         0 
    -> L=2 0 0 0:     0.001 sec done=       726 (=100.0%) skipped=         0 
    -> RHF LowL loop time =     0.004 sec
    -> L=2 0 1 0:     0.000 sec done=       242 (=100.0%) skipped=         0 
    -> L=2 0 1 1:     0.000 sec done=        33 (=100.0%) skipped=         0 
    -> L=2 0 2 0:     0.000 sec done=        66 (=100.0%) skipped=         0 
    -> L=2 1 0 0:     0.000 sec done=       132 (=100.0%) skipped=         0 
    -> L=2 1 1 0:     0.000 sec done=        44 (=100.0%) skipped=         0 
    -> L=2 1 2 0:     0.000 sec done=        22 (=100.0%) skipped=         0 
    -> L=2 2 0 0:     0.000 sec done=        66 (=100.0%) skipped=         0 
    ->Total SHARK integral loop time =    0.002 sec
    -> L=0 1 2 2:     0.000 sec done=        22 (=100.0%) skipped=         0 
    -> L=0 2 2 2:     0.000 sec done=        11 (=100.0%) skipped=         0 
    -> L=1 1 1 2:     0.000 sec done=         6 (=100.0%) skipped=         0 
    -> L=1 1 2 2:     0.000 sec done=         3 (=100.0%) skipped=         0 
    -> L=1 2 1 2:     0.000 sec done=         3 (=100.0%) skipped=         0 
    -> L=1 2 2 2:     0.000 sec done=         2 (=100.0%) skipped=         0 
    -> L=2 2 2 2:     0.000 sec done=         1 (=100.0%) skipped=         0 
    ->Total LIBINT loop time =    0.001 sec

                         ----------------------------
                         !        ITERATION     1   !
                         ----------------------------
   Total Energy        :     -40.124191113082 Eh
   Energy Change       :      -0.040139569606 Eh
   MAX-DP              :       0.048547504916
   RMS-DP              :       0.005003322945
   Actual Damping      :       0.7000
   Actual Level Shift  :       0.2500 Eh

===> SHARK/Fock/General/Sym: HFTyp=1 DoJ=1 DoX=1 facj= 2.000 facx=-0.500 NFock=1 NumOp=1 NMat=1 RangeSep=0 GeneralContraction=0 PGCOpt=0
    -> L=0 0 0 0:     0.001 sec done=      2211 (=100.0%) skipped=         0 
    -> L=1 0 0 0:     0.001 sec done=      1452 (=100.0%) skipped=         0 
    -> L=1 0 1 0:     0.000 sec done=       253 (=100.0%) skipped=         0 
    -> L=1 1 0 0:     0.000 sec done=       198 (=100.0%) skipped=         0 
    -> L=1 1 1 0:     0.000 sec done=        66 (=100.0%) skipped=         0 
    -> L=1 1 1 1:     0.000 sec done=         6 (=100.0%) skipped=         0 
    -> L=2 0 0 0:     0.001 sec done=       726 (=100.0%) skipped=         0 
    -> RHF LowL loop time =     0.005 sec
    -> L=2 0 1 0:     0.000 sec done=       242 (=100.0%) skipped=         0 
    -> L=2 0 1 1:     0.000 sec done=        33 (=100.0%) skipped=         0 
    -> L=2 0 2 0:     0.000 sec done=        66 (=100.0%) skipped=         0 
    -> L=2 1 0 0:     0.000 sec done=       132 (=100.0%) skipped=         0 
    -> L=2 1 1 0:     0.000 sec done=        44 (=100.0%) skipped=         0 
    -> L=2 1 2 0:     0.000 sec done=        22 (=100.0%) skipped=         0 
    -> L=2 2 0 0:     0.000 sec done=        66 (=100.0%) skipped=         0 
    ->Total SHARK integral loop time =    0.002 sec
    -> L=0 1 2 2:     0.000 sec done=        22 (=100.0%) skipped=         0 
    -> L=0 2 2 2:     0.000 sec done=        11 (=100.0%) skipped=         0 
    -> L=1 1 1 2:     0.000 sec done=         6 (=100.0%) skipped=         0 
    -> L=1 1 2 2:     0.000 sec done=         3 (=100.0%) skipped=         0 
    -> L=1 2 1 2:     0.000 sec done=         3 (=100.0%) skipped=         0 
    -> L=1 2 2 2:     0.000 sec done=         2 (=100.0%) skipped=         0 
    -> L=2 2 2 2:     0.000 sec done=         1 (=100.0%) skipped=         0 
    ->Total LIBINT loop time =    0.001 sec
                               ***Turning on DIIS***

                         ----------------------------
                         !        ITERATION     2   !
                         ----------------------------
   Total Energy        :     -40.148132554336 Eh
   Energy Change       :      -0.023941441254 Eh
   MAX-DP              :       0.101585747412
   RMS-DP              :       0.010882270219
   Actual Damping      :       0.0000
   Actual Level Shift  :       0.2500 Eh
   DIIS-Error          :       0.094236350275

===> SHARK/Fock/General/Sym: HFTyp=1 DoJ=1 DoX=1 facj= 2.000 facx=-0.500 NFock=1 NumOp=1 NMat=1 RangeSep=0 GeneralContraction=0 PGCOpt=0
    -> L=0 0 0 0:     0.001 sec done=      2211 (=100.0%) skipped=         0 
    -> L=1 0 0 0:     0.001 sec done=      1452 (=100.0%) skipped=         0 
    -> L=1 0 1 0:     0.000 sec done=       253 (=100.0%) skipped=         0 
    -> L=1 1 0 0:     0.000 sec done=       198 (=100.0%) skipped=         0 
    -> L=1 1 1 0:     0.000 sec done=        66 (=100.0%) skipped=         0 
    -> L=1 1 1 1:     0.000 sec done=         6 (=100.0%) skipped=         0 
    -> L=2 0 0 0:     0.001 sec done=       726 (=100.0%) skipped=         0 
    -> RHF LowL loop time =     0.004 sec
    -> L=2 0 1 0:     0.000 sec done=       242 (=100.0%) skipped=         0 
    -> L=2 0 1 1:     0.000 sec done=        33 (=100.0%) skipped=         0 
    -> L=2 0 2 0:     0.000 sec done=        66 (=100.0%) skipped=         0 
    -> L=2 1 0 0:     0.000 sec done=       132 (=100.0%) skipped=         0 
    -> L=2 1 1 0:     0.000 sec done=        44 (=100.0%) skipped=         0 
    -> L=2 1 2 0:     0.000 sec done=        22 (=100.0%) skipped=         0 
    -> L=2 2 0 0:     0.000 sec done=        66 (=100.0%) skipped=         0 
    ->Total SHARK integral loop time =    0.002 sec
    -> L=0 1 2 2:     0.000 sec done=        22 (=100.0%) skipped=         0 
    -> L=0 2 2 2:     0.000 sec done=        11 (=100.0%) skipped=         0 
    -> L=1 1 1 2:     0.000 sec done=         6 (=100.0%) skipped=         0 
    -> L=1 1 2 2:     0.000 sec done=         3 (=100.0%) skipped=         0 
    -> L=1 2 1 2:     0.000 sec done=         3 (=100.0%) skipped=         0 
    -> L=1 2 2 2:     0.000 sec done=         2 (=100.0%) skipped=         0 
    -> L=2 2 2 2:     0.000 sec done=         1 (=100.0%) skipped=         0 
    ->Total LIBINT loop time =    0.001 sec

                         ----------------------------
                         !        ITERATION     3   !
                         ----------------------------
   Total Energy        :     -40.063506928805 Eh
   Energy Change       :       0.084625625531 Eh
   MAX-DP              :       0.024202537566
   RMS-DP              :       0.002719335436
   Actual Damping      :       0.0000
   Actual Level Shift  :       0.2500 Eh
   DIIS-Error          :       0.039049344847
   DIIS coefficients:
      0.25745   0.74255

===> SHARK/Fock/General/Sym: HFTyp=1 DoJ=1 DoX=1 facj= 2.000 facx=-0.500 NFock=1 NumOp=1 NMat=1 RangeSep=0 GeneralContraction=0 PGCOpt=0
    -> L=0 0 0 0:     0.001 sec done=      2211 (=100.0%) skipped=         0 
    -> L=1 0 0 0:     0.001 sec done=      1452 (=100.0%) skipped=         0 
    -> L=1 0 1 0:     0.000 sec done=       253 (=100.0%) skipped=         0 
    -> L=1 1 0 0:     0.000 sec done=       198 (=100.0%) skipped=         0 
    -> L=1 1 1 0:     0.000 sec done=        66 (=100.0%) skipped=         0 
    -> L=1 1 1 1:     0.000 sec done=         6 (=100.0%) skipped=         0 
    -> L=2 0 0 0:     0.001 sec done=       726 (=100.0%) skipped=         0 
    -> RHF LowL loop time =     0.005 sec
    -> L=2 0 1 0:     0.000 sec done=       242 (=100.0%) skipped=         0 
    -> L=2 0 1 1:     0.000 sec done=        33 (=100.0%) skipped=         0 
    -> L=2 0 2 0:     0.000 sec done=        66 (=100.0%) skipped=         0 
    -> L=2 1 0 0:     0.000 sec done=       132 (=100.0%) skipped=         0 
    -> L=2 1 1 0:     0.000 sec done=        44 (=100.0%) skipped=         0 
    -> L=2 1 2 0:     0.000 sec done=        22 (=100.0%) skipped=         0 
    -> L=2 2 0 0:     0.000 sec done=        66 (=100.0%) skipped=         0 
    ->Total SHARK integral loop time =    0.002 sec
    -> L=0 1 2 2:     0.000 sec done=        22 (=100.0%) skipped=         0 
    -> L=0 2 2 2:     0.000 sec done=        11 (=100.0%) skipped=         0 
    -> L=1 1 1 2:     0.000 sec done=         6 (=100.0%) skipped=         0 
    -> L=1 1 2 2:     0.000 sec done=         3 (=100.0%) skipped=         0 
    -> L=1 2 1 2:     0.000 sec done=         3 (=100.0%) skipped=         0 
    -> L=1 2 2 2:     0.000 sec done=         2 (=100.0%) skipped=         0 
    -> L=2 2 2 2:     0.000 sec done=         1 (=100.0%) skipped=         0 
    ->Total LIBINT loop time =    0.001 sec

                         ----------------------------
                         !        ITERATION     4   !
                         ----------------------------
   Total Energy        :     -40.179189182744 Eh
   Energy Change       :      -0.115682253939 Eh
   MAX-DP              :       0.004356299449
   RMS-DP              :       0.000544434084
   Actual Damping      :       0.0000
   Actual Level Shift  :       0.2500 Eh
   DIIS-Error          :       0.004557351729
   DIIS coefficients:
     -0.02750  -0.20172   1.22922

===> SHARK/Fock/General/Sym: HFTyp=1 DoJ=1 DoX=1 facj= 2.000 facx=-0.500 NFock=1 NumOp=1 NMat=1 RangeSep=0 GeneralContraction=0 PGCOpt=0
    -> L=0 0 0 0:     0.001 sec done=      2211 (=100.0%) skipped=         0 
    -> L=1 0 0 0:     0.001 sec done=      1452 (=100.0%) skipped=         0 
    -> L=1 0 1 0:     0.000 sec done=       253 (=100.0%) skipped=         0 
    -> L=1 1 0 0:     0.000 sec done=       198 (=100.0%) skipped=         0 
    -> L=1 1 1 0:     0.000 sec done=        66 (=100.0%) skipped=         0 
    -> L=1 1 1 1:     0.000 sec done=         6 (=100.0%) skipped=         0 
    -> L=2 0 0 0:     0.001 sec done=       726 (=100.0%) skipped=         0 
    -> RHF LowL loop time =     0.005 sec
    -> L=2 0 1 0:     0.000 sec done=       242 (=100.0%) skipped=         0 
    -> L=2 0 1 1:     0.000 sec done=        33 (=100.0%) skipped=         0 
    -> L=2 0 2 0:     0.000 sec done=        66 (=100.0%) skipped=         0 
    -> L=2 1 0 0:     0.000 sec done=       132 (=100.0%) skipped=         0 
    -> L=2 1 1 0:     0.000 sec done=        44 (=100.0%) skipped=         0 
    -> L=2 1 2 0:     0.000 sec done=        22 (=100.0%) skipped=         0 
    -> L=2 2 0 0:     0.000 sec done=        66 (=100.0%) skipped=         0 
    ->Total SHARK integral loop time =    0.002 sec
    -> L=0 1 2 2:     0.000 sec done=        22 (=100.0%) skipped=         0 
    -> L=0 2 2 2:     0.000 sec done=        11 (=100.0%) skipped=         0 
    -> L=1 1 1 2:     0.000 sec done=         6 (=100.0%) skipped=         0 
    -> L=1 1 2 2:     0.000 sec done=         3 (=100.0%) skipped=         0 
    -> L=1 2 1 2:     0.000 sec done=         3 (=100.0%) skipped=         0 
    -> L=1 2 2 2:     0.000 sec done=         2 (=100.0%) skipped=         0 
    -> L=2 2 2 2:     0.000 sec done=         1 (=100.0%) skipped=         0 
    ->Total LIBINT loop time =    0.001 sec
                      *** Initiating the SOSCF procedure ***
                           *** Shutting down DIIS ***
                      *** Re-Reading the Fockian *** 
                      *** Removing any level shift *** 

                         ----------------------------
                         !        ITERATION     5   !
                         ----------------------------
   Total Energy        :     -40.192222231947 Eh
   Energy Change       :      -0.013033049202 Eh
   MAX-DP              :       0.001127477089
   RMS-DP              :       0.000193064747
   Orbital gradient    :       0.000775682640
   Orbital Rotation    :       0.000775682640
   Actual Damping      :       0.0000

               *** Restarting incremental Fock matrix formation ***
===> SHARK/Fock/General/Sym: HFTyp=1 DoJ=1 DoX=1 facj= 2.000 facx=-0.500 NFock=1 NumOp=1 NMat=1 RangeSep=0 GeneralContraction=0 PGCOpt=0
    -> L=0 0 0 0:     0.001 sec done=      2211 (=100.0%) skipped=         0 
    -> L=1 0 0 0:     0.001 sec done=      1452 (=100.0%) skipped=         0 
    -> L=1 0 1 0:     0.000 sec done=       253 (=100.0%) skipped=         0 
    -> L=1 1 0 0:     0.000 sec done=       198 (=100.0%) skipped=         0 
    -> L=1 1 1 0:     0.000 sec done=        66 (=100.0%) skipped=         0 
    -> L=1 1 1 1:     0.000 sec done=         6 (=100.0%) skipped=         0 
    -> L=2 0 0 0:     0.001 sec done=       726 (=100.0%) skipped=         0 
    -> RHF LowL loop time =     0.005 sec
    -> L=2 0 1 0:     0.000 sec done=       242 (=100.0%) skipped=         0 
    -> L=2 0 1 1:     0.000 sec done=        33 (=100.0%) skipped=         0 
    -> L=2 0 2 0:     0.000 sec done=        66 (=100.0%) skipped=         0 
    -> L=2 1 0 0:     0.000 sec done=       132 (=100.0%) skipped=         0 
    -> L=2 1 1 0:     0.000 sec done=        44 (=100.0%) skipped=         0 
    -> L=2 1 2 0:     0.000 sec done=        22 (=100.0%) skipped=         0 
    -> L=2 2 0 0:     0.000 sec done=        66 (=100.0%) skipped=         0 
    ->Total SHARK integral loop time =    0.002 sec
    -> L=0 1 2 2:     0.000 sec done=        22 (=100.0%) skipped=         0 
    -> L=0 2 2 2:     0.000 sec done=        11 (=100.0%) skipped=         0 
    -> L=1 1 1 2:     0.000 sec done=         6 (=100.0%) skipped=         0 
    -> L=1 1 2 2:     0.000 sec done=         3 (=100.0%) skipped=         0 
    -> L=1 2 1 2:     0.000 sec done=         3 (=100.0%) skipped=         0 
    -> L=1 2 2 2:     0.000 sec done=         2 (=100.0%) skipped=         0 
    -> L=2 2 2 2:     0.000 sec done=         1 (=100.0%) skipped=         0 
    ->Total LIBINT loop time =    0.001 sec

                         ----------------------------
                         !        ITERATION     6   !
                         ----------------------------
   Total Energy        :     -40.194304406493 Eh
   Energy Change       :      -0.002082174547 Eh
   MAX-DP              :       0.000383923097
   RMS-DP              :       0.000068228851
   Orbital gradient    :       0.000163687909
   Orbital Rotation    :       0.000152171268
   Actual Damping      :       0.0000

===> SHARK/Fock/General/Sym: HFTyp=1 DoJ=1 DoX=1 facj= 2.000 facx=-0.500 NFock=1 NumOp=1 NMat=1 RangeSep=0 GeneralContraction=0 PGCOpt=0
    -> L=0 0 0 0:     0.001 sec done=      2211 (=100.0%) skipped=         0 
    -> L=1 0 0 0:     0.001 sec done=      1452 (=100.0%) skipped=         0 
    -> L=1 0 1 0:     0.000 sec done=       253 (=100.0%) skipped=         0 
    -> L=1 1 0 0:     0.000 sec done=       198 (=100.0%) skipped=         0 
    -> L=1 1 1 0:     0.000 sec done=        66 (=100.0%) skipped=         0 
    -> L=1 1 1 1:     0.000 sec done=         6 (=100.0%) skipped=         0 
    -> L=2 0 0 0:     0.001 sec done=       726 (=100.0%) skipped=         0 
    -> RHF LowL loop time =     0.004 sec
    -> L=2 0 1 0:     0.000 sec done=       242 (=100.0%) skipped=         0 
    -> L=2 0 1 1:     0.000 sec done=        33 (=100.0%) skipped=         0 
    -> L=2 0 2 0:     0.000 sec done=        66 (=100.0%) skipped=         0 
    -> L=2 1 0 0:     0.000 sec done=       132 (=100.0%) skipped=         0 
    -> L=2 1 1 0:     0.000 sec done=        44 (=100.0%) skipped=         0 
    -> L=2 1 2 0:     0.000 sec done=        22 (=100.0%) skipped=         0 
    -> L=2 2 0 0:     0.000 sec done=        66 (=100.0%) skipped=         0 
    ->Total SHARK integral loop time =    0.002 sec
    -> L=0 1 2 2:     0.000 sec done=        22 (=100.0%) skipped=         0 
    -> L=0 2 2 2:     0.000 sec done=        11 (=100.0%) skipped=         0 
    -> L=1 1 1 2:     0.000 sec done=         6 (=100.0%) skipped=         0 
    -> L=1 1 2 2:     0.000 sec done=         3 (=100.0%) skipped=         0 
    -> L=1 2 1 2:     0.000 sec done=         3 (=100.0%) skipped=         0 
    -> L=1 2 2 2:     0.000 sec done=         2 (=100.0%) skipped=         0 
    -> L=2 2 2 2:     0.000 sec done=         1 (=100.0%) skipped=         0 
    ->Total LIBINT loop time =    0.001 sec

                         ----------------------------
                         !        ITERATION     7   !
                         ----------------------------
   Total Energy        :     -40.194304834045 Eh
   Energy Change       :      -0.000000427552 Eh
   MAX-DP              :       0.000184449058
   RMS-DP              :       0.000035250452
   Orbital gradient    :       0.000062249721
   Orbital Rotation    :       0.000106576610
   Actual Damping      :       0.0000

===> SHARK/Fock/General/Sym: HFTyp=1 DoJ=1 DoX=1 facj= 2.000 facx=-0.500 NFock=1 NumOp=1 NMat=1 RangeSep=0 GeneralContraction=0 PGCOpt=0
    -> L=0 0 0 0:     0.001 sec done=      2211 (=100.0%) skipped=         0 
    -> L=1 0 0 0:     0.001 sec done=      1452 (=100.0%) skipped=         0 
    -> L=1 0 1 0:     0.000 sec done=       253 (=100.0%) skipped=         0 
    -> L=1 1 0 0:     0.000 sec done=       198 (=100.0%) skipped=         0 
    -> L=1 1 1 0:     0.000 sec done=        66 (=100.0%) skipped=         0 
    -> L=1 1 1 1:     0.000 sec done=         6 (=100.0%) skipped=         0 
    -> L=2 0 0 0:     0.001 sec done=       726 (=100.0%) skipped=         0 
    -> RHF LowL loop time =     0.004 sec
    -> L=2 0 1 0:     0.000 sec done=       242 (=100.0%) skipped=         0 
    -> L=2 0 1 1:     0.000 sec done=        33 (=100.0%) skipped=         0 
    -> L=2 0 2 0:     0.000 sec done=        66 (=100.0%) skipped=         0 
    -> L=2 1 0 0:     0.000 sec done=       132 (=100.0%) skipped=         0 
    -> L=2 1 1 0:     0.000 sec done=        44 (=100.0%) skipped=         0 
    -> L=2 1 2 0:     0.000 sec done=        22 (=100.0%) skipped=         0 
    -> L=2 2 0 0:     0.000 sec done=        66 (=100.0%) skipped=         0 
    ->Total SHARK integral loop time =    0.002 sec
    -> L=0 1 2 2:     0.000 sec done=        22 (=100.0%) skipped=         0 
    -> L=0 2 2 2:     0.000 sec done=        11 (=100.0%) skipped=         0 
    -> L=1 1 1 2:     0.000 sec done=         6 (=100.0%) skipped=         0 
    -> L=1 1 2 2:     0.000 sec done=         3 (=100.0%) skipped=         0 
    -> L=1 2 1 2:     0.000 sec done=         3 (=100.0%) skipped=         0 
    -> L=1 2 2 2:     0.000 sec done=         2 (=100.0%) skipped=         0 
    -> L=2 2 2 2:     0.000 sec done=         1 (=100.0%) skipped=         0 
    ->Total LIBINT loop time =    0.001 sec

                         ----------------------------
                         !        ITERATION     8   !
                         ----------------------------
   Total Energy        :     -40.194304884473 Eh
   Energy Change       :      -0.000000050428 Eh
   MAX-DP              :       0.000037721941
   RMS-DP              :       0.000003167445
   Orbital gradient    :       0.000014066698
   Orbital Rotation    :       0.000008779688
   Actual Damping      :       0.0000

===> SHARK/Fock/General/Sym: HFTyp=1 DoJ=1 DoX=1 facj= 2.000 facx=-0.500 NFock=1 NumOp=1 NMat=1 RangeSep=0 GeneralContraction=0 PGCOpt=0
    -> L=0 0 0 0:     0.001 sec done=      2211 (=100.0%) skipped=         0 
    -> L=1 0 0 0:     0.001 sec done=      1452 (=100.0%) skipped=         0 
    -> L=1 0 1 0:     0.000 sec done=       253 (=100.0%) skipped=         0 
    -> L=1 1 0 0:     0.000 sec done=       198 (=100.0%) skipped=         0 
    -> L=1 1 1 0:     0.000 sec done=        66 (=100.0%) skipped=         0 
    -> L=1 1 1 1:     0.000 sec done=         6 (=100.0%) skipped=         0 
    -> L=2 0 0 0:     0.001 sec done=       726 (=100.0%) skipped=         0 
    -> RHF LowL loop time =     0.004 sec
    -> L=2 0 1 0:     0.000 sec done=       242 (=100.0%) skipped=         0 
    -> L=2 0 1 1:     0.000 sec done=        33 (=100.0%) skipped=         0 
    -> L=2 0 2 0:     0.000 sec done=        66 (=100.0%) skipped=         0 
    -> L=2 1 0 0:     0.000 sec done=       132 (=100.0%) skipped=         0 
    -> L=2 1 1 0:     0.000 sec done=        44 (=100.0%) skipped=         0 
    -> L=2 1 2 0:     0.000 sec done=        22 (=100.0%) skipped=         0 
    -> L=2 2 0 0:     0.000 sec done=        66 (=100.0%) skipped=         0 
    ->Total SHARK integral loop time =    0.002 sec
    -> L=0 1 2 2:     0.000 sec done=        22 (=100.0%) skipped=         0 
    -> L=0 2 2 2:     0.000 sec done=        11 (=100.0%) skipped=         0 
    -> L=1 1 1 2:     0.000 sec done=         6 (=100.0%) skipped=         0 
    -> L=1 1 2 2:     0.000 sec done=         3 (=100.0%) skipped=         0 
    -> L=1 2 1 2:     0.000 sec done=         3 (=100.0%) skipped=         0 
    -> L=1 2 2 2:     0.000 sec done=         2 (=100.0%) skipped=         0 
    -> L=2 2 2 2:     0.000 sec done=         1 (=100.0%) skipped=         0 
    ->Total LIBINT loop time =    0.001 sec
                  ***Gradient check signals convergence***
              ***Rediagonalizing the Fockian in SOSCF/NRSCF***

               *****************************************************
               *                     SUCCESS                       *
               *           SCF CONVERGED AFTER   9 CYCLES          *
               *****************************************************


----------------
TOTAL SCF ENERGY
----------------

Total Energy       :          -40.19430489 Eh           -1093.74264 eV

Components:
Nuclear Repulsion  :           13.68651577 Eh             372.42903 eV
Electronic Energy  :          -53.88082066 Eh           -1466.17167 eV
One Electron Energy:          -80.17427155 Eh           -2181.65284 eV
Two Electron Energy:           26.29345089 Eh             715.48117 eV

Virial components:
Potential Energy   :          -80.53112732 Eh           -2191.36338 eV
Kinetic Energy     :           40.33682244 Eh            1097.62074 eV
Virial Ratio       :            1.99646681


---------------
SCF CONVERGENCE
---------------

  Last Energy change         ...   -1.1930e-09  Tolerance :   1.0000e-08
  Last MAX-Density change    ...    3.4126e-06  Tolerance :   1.0000e-07
  Last RMS-Density change    ...    4.5456e-07  Tolerance :   5.0000e-09
  Last Orbital Gradient      ...    2.3206e-06  Tolerance :   1.0000e-05
  Last Orbital Rotation      ...    1.5677e-06  Tolerance :   1.0000e-05

             **** THE GBW FILE WAS UPDATED (result.gbw) ****
             **** DENSITY result.scfp WAS UPDATED ****
             **** ENERGY FILE WAS UPDATED (result.en.tmp) ****
             **** THE GBW FILE WAS UPDATED (result.gbw) ****
             **** DENSITY result.scfp WAS UPDATED ****
----------------
ORBITAL ENERGIES
----------------

  NO   OCC          E(Eh)            E(eV) 
   0   2.0000     -11.194014      -304.6046 
   1   2.0000      -0.950332       -25.8599 
   2   2.0000      -0.549775       -14.9601 
   3   2.0000      -0.549774       -14.9601 
   4   2.0000      -0.549773       -14.9601 
   5   0.0000       0.259842         7.0707 
   6   0.0000       0.331559         9.0222 
   7   0.0000       0.331560         9.0222 
   8   0.0000       0.331560         9.0222 
   9   0.0000       0.723349        19.6833 
  10   0.0000       0.723351        19.6834 
  11   0.0000       0.723351        19.6834 
  12   0.0000       1.197141        32.5759 
  13   0.0000       1.197143        32.5759 
  14   0.0000       1.197144        32.5759 
  15   0.0000       1.278259        34.7832 
  16   0.0000       1.333951        36.2986 
  17   0.0000       1.938194        52.7409 
  18   0.0000       1.938194        52.7409 
  19   0.0000       2.611816        71.0711 
  20   0.0000       2.611818        71.0712 
  21   0.0000       2.611822        71.0713 
------------------
MOLECULAR ORBITALS
------------------
                      0         1         2         3         4         5   
                 -11.19401  -0.95033  -0.54977  -0.54977  -0.54977   0.25984
                   2.00000   2.00000   2.00000   2.00000   2.00000   0.00000
                  --------  --------  --------  --------  --------  --------
  0C   1s         0.996129  0.197470 -0.000000 -0.000000 -0.000000 -0.152837
  0C   2s         0.025721 -0.373901  0.000000  0.000000  0.000000  0.083951
  0C   1pz       -0.000000  0.000001  0.369223  0.143888 -0.187698  0.000001
  0C   1px        0.000000 -0.000000 -0.201877  0.373028 -0.111156 -0.000000
  0C   1py        0.000000 -0.000001 -0.123206 -0.180019 -0.380359 -0.000001
  0C   3s        -0.017012 -0.375360  0.000001  0.000001  0.000000  2.871276
  0C   2pz        0.000000  0.000000  0.191190  0.074507 -0.097194  0.000003
  0C   2px       -0.000000 -0.000000 -0.104536  0.193160 -0.057559 -0.000000
  0C   2py       -0.000000 -0.000000 -0.063798 -0.093217 -0.196958 -0.000002
  0C   1dz2       0.000000 -0.000000 -0.007844 -0.028382 -0.010103  0.000000
  0C   1dxz       0.000000  0.000000 -0.017476 -0.006810  0.008884  0.000000
  0C   1dyz      -0.000000  0.000000  0.018233  0.003075 -0.022794 -0.000000
  0C   1dx2y2     0.000000 -0.000000 -0.023639  0.018926 -0.016355  0.000000
  0C   1dxy      -0.000000 -0.000000  0.005832  0.008521  0.018004 -0.000000
  1H   1s        -0.000098 -0.136564 -0.135032  0.249513 -0.074351  0.007313
  1H   2s         0.003236 -0.033232 -0.109571  0.202468 -0.060332 -1.064332
  2H   1s        -0.000098 -0.136564 -0.200221 -0.208508  0.049543  0.007313
  2H   2s         0.003236 -0.033232 -0.162468 -0.169194  0.040202 -1.064328
  3H   1s        -0.000098 -0.136563  0.176902 -0.084213 -0.218248  0.007312
  3H   2s         0.003236 -0.033232  0.143547 -0.068335 -0.177098 -1.064333
  4H   1s        -0.000098 -0.136563  0.158351  0.043209  0.243057  0.007312
  4H   2s         0.003236 -0.033232  0.128494  0.035062  0.197229 -1.064335
                      6         7         8         9        10        11   
                   0.33156   0.33156   0.33156   0.72335   0.72335   0.72335
                   0.00000   0.00000   0.00000   0.00000   0.00000   0.00000
                  --------  --------  --------  --------  --------  --------
  0C   1s         0.000000  0.000000 -0.000001  0.000000 -0.000000  0.000000
  0C   2s         0.000000  0.000000 -0.000000  0.000000 -0.000000  0.000000
  0C   1pz       -0.086815 -0.009510 -0.279637 -0.545243  0.411745 -0.223796
  0C   1px       -0.054143  0.287826  0.007022 -0.446959 -0.353687  0.438227
  0C   1py       -0.274511 -0.053762  0.087052  0.140874  0.471468  0.524198
  0C   3s        -0.000009 -0.000001  0.000025 -0.000008  0.000001 -0.000008
  0C   2pz       -0.453998 -0.049730 -1.462369  1.032276 -0.779533  0.423707
  0C   2px       -0.283141  1.505186  0.036721  0.846196  0.669617 -0.829670
  0C   2py       -1.435551 -0.281148  0.455239 -0.266709 -0.892597 -0.992430
  0C   1dz2       0.006126  0.009093 -0.007364  0.067456  0.047099  0.025287
  0C   1dxz      -0.002609 -0.000286 -0.008405  0.043515 -0.032861  0.017861
  0C   1dyz       0.008606  0.001402  0.008890 -0.047513  0.065629  0.004508
  0C   1dx2y2     0.006791 -0.012051 -0.004673 -0.032398 -0.029262  0.084548
  0C   1dxy      -0.008251 -0.001616  0.002616 -0.011243 -0.037628 -0.041836
  1H   1s         0.013653 -0.072578 -0.001769 -0.335299 -0.265326  0.328745
  1H   2s         0.382984 -2.035941 -0.049668 -0.062731 -0.049649  0.061518
  2H   1s        -0.000487  0.026653 -0.068894  0.507529 -0.064264  0.170824
  2H   2s        -0.013639  0.747639 -1.932640  0.094965 -0.012028  0.031972
  3H   1s         0.052590  0.034000  0.039185 -0.124969  0.524670  0.001038
  3H   2s         1.475227  0.953761  1.099194 -0.023381  0.098172  0.000190
  4H   1s        -0.065756  0.011926  0.031480 -0.047262 -0.195079 -0.500607
  4H   2s        -1.844560  0.334543  0.883082 -0.008844 -0.036497 -0.093670
                     12        13        14        15        16        17   
                   1.19714   1.19714   1.19714   1.27826   1.33395   1.93819
                   0.00000   0.00000   0.00000   0.00000   0.00000   0.00000
                  --------  --------  --------  --------  --------  --------
  0C   1s         0.000001  0.000000 -0.000003  0.099405 -0.090537 -0.000001
  0C   2s        -0.000009 -0.000003  0.000027 -1.229018 -2.070643 -0.000008
  0C   1pz        0.287291 -0.034802  0.883341  0.000022 -0.000002  0.000000
  0C   1px        0.171868 -0.908895 -0.091706 -0.000002  0.000000 -0.000000
  0C   1py        0.867157  0.191670 -0.274477 -0.000017  0.000002 -0.000000
  0C   3s         0.000011  0.000003 -0.000033  1.797600  5.239423  0.000027
  0C   2pz       -0.376339  0.045590 -1.157140 -0.000026 -0.000006 -0.000000
  0C   2px       -0.225140  1.190614  0.120131  0.000002  0.000000  0.000000
  0C   2py       -1.135940 -0.251080  0.359553  0.000020  0.000004  0.000000
  0C   1dz2      -0.088546 -0.141423  0.099329  0.000005 -0.000001  0.399903
  0C   1dxz       0.040010 -0.004845  0.123021  0.000002  0.000003 -0.734023
  0C   1dyz      -0.128257 -0.011120 -0.130168 -0.000004  0.000002 -0.346551
  0C   1dx2y2    -0.098993  0.171510  0.082889  0.000003 -0.000001  0.230887
  0C   1dxy       0.120768  0.026693 -0.038226 -0.000002 -0.000000  0.357604
  1H   1s        -0.157709  0.834048  0.084135  0.601333 -0.406308 -0.000005
  1H   2s         0.296759 -1.569385 -0.158327 -0.635884 -0.947330 -0.000004
  2H   1s         0.016394 -0.365432  0.770554  0.601353 -0.406309 -0.000005
  2H   2s        -0.030843  0.687620 -1.449929 -0.635920 -0.947336 -0.000004
  3H   1s        -0.613067 -0.359092 -0.472015  0.601325 -0.406307 -0.000005
  3H   2s         1.153583  0.675687  0.888150 -0.635871 -0.947328 -0.000004
  4H   1s         0.754405 -0.109517 -0.382740  0.601315 -0.406307 -0.000005
  4H   2s        -1.419518  0.206073  0.720164 -0.635852 -0.947325 -0.000004
                     18        19        20        21   
                   1.93819   2.61182   2.61182   2.61182
                   0.00000   0.00000   0.00000   0.00000
                  --------  --------  --------  --------
  0C   1s         0.000000  0.000000 -0.000000  0.000000
  0C   2s         0.000002 -0.000001  0.000000 -0.000001
  0C   1pz       -0.000000  0.024439 -0.124596  0.158023
  0C   1px       -0.000000 -0.097070  0.132138  0.119201
  0C   1py        0.000000 -0.176270 -0.090040 -0.043735
  0C   3s        -0.000007 -0.000004  0.000002 -0.000005
  0C   2pz        0.000000  0.049972 -0.254762  0.323101
  0C   2px        0.000000 -0.198481  0.270182  0.243724
  0C   2py       -0.000000 -0.360421 -0.184104 -0.089423
  0C   1dz2       0.300127 -0.395631 -0.464729 -0.777472
  0C   1dxz       0.357603 -0.079441  0.405019 -0.513661
  0C   1dyz       0.461775 -0.269638 -0.698529  0.554760
  0C   1dx2y2     0.173278 -0.859499  0.590748  0.326087
  0C   1dxy       0.734018  0.572999  0.292692  0.142162
  1H   1s         0.000001  0.419961 -0.571671 -0.515702
  1H   2s         0.000001 -0.052073  0.070885  0.063951
  2H   1s         0.000001  0.210233 -0.152708  0.837624
  2H   2s         0.000001 -0.026066  0.018934 -0.103866
  3H   1s         0.000001  0.235522  0.816615 -0.216309
  3H   2s         0.000001 -0.029206 -0.101260  0.026824
  4H   1s         0.000001 -0.865711 -0.092238 -0.105607
  4H   2s         0.000001  0.107348  0.011439  0.013095


-------
DENSITY
-------
                  0          1          2          3          4          5    
      0       2.062534  -0.096426   0.000000  -0.000000  -0.000000  -0.182137
      1      -0.096426   0.280927  -0.000000   0.000000   0.000000   0.279820
      2       0.000000  -0.000000   0.384520   0.000000  -0.000000   0.000000
      3      -0.000000   0.000000   0.000000   0.384520  -0.000000  -0.000000
      4      -0.000000   0.000000  -0.000000  -0.000000   0.384519  -0.000000
      5      -0.182137   0.279820   0.000000  -0.000000  -0.000000   0.282370
      6       0.000000  -0.000000   0.199111   0.000000   0.000000   0.000000
      7      -0.000000   0.000000   0.000000   0.199111  -0.000000  -0.000000
      8       0.000000  -0.000000   0.000000  -0.000000   0.199111  -0.000000
      9      -0.000000   0.000000  -0.010168  -0.015762   0.019837   0.000000
     10       0.000000  -0.000000  -0.018200   0.000000  -0.000000  -0.000000
     11       0.000000  -0.000000   0.022906  -0.000000   0.011740  -0.000000
     12      -0.000000   0.000000  -0.005870   0.027300   0.011453  -0.000000
     13      -0.000000   0.000000  -0.000000   0.000000  -0.018200   0.000000
     14      -0.054130   0.102117   0.000001   0.257200  -0.000000   0.102524
     15      -0.006678   0.025017   0.000001   0.208704  -0.000001   0.024838
     16      -0.054130   0.102118  -0.226454  -0.085733   0.086720   0.102524
     17      -0.006677   0.025017  -0.183756  -0.069568   0.070368   0.024837
     18      -0.054130   0.102117   0.188328  -0.085734   0.152755   0.102525
     19      -0.006678   0.025017   0.152818  -0.069568   0.123953   0.024838
     20      -0.054130   0.102117   0.038125  -0.085733  -0.239474   0.102525
     21      -0.006678   0.025017   0.030937  -0.069568  -0.194321   0.024838
                  6          7          8          9         10         11    
      0       0.000000  -0.000000   0.000000  -0.000000   0.000000   0.000000
      1      -0.000000   0.000000  -0.000000   0.000000  -0.000000  -0.000000
      2       0.199111   0.000000   0.000000  -0.010168  -0.018200   0.022906
      3       0.000000   0.199111  -0.000000  -0.015762   0.000000  -0.000000
      4       0.000000  -0.000000   0.199111   0.019837  -0.000000   0.011740
      5       0.000000  -0.000000  -0.000000   0.000000  -0.000000  -0.000000
      6       0.103103   0.000000   0.000000  -0.005265  -0.009424   0.011861
      7       0.000000   0.103103   0.000000  -0.008162   0.000000  -0.000000
      8       0.000000   0.000000   0.103104   0.010272  -0.000000   0.006079
      9      -0.005265  -0.008162   0.010272   0.001938   0.000481  -0.000000
     10      -0.009424   0.000000  -0.000000   0.000481   0.000861  -0.001084
     11       0.011861  -0.000000   0.006079  -0.000000  -0.001084   0.001723
     12      -0.003040   0.014137   0.005930  -0.000373   0.000278  -0.000000
     13      -0.000000  -0.000000  -0.009425  -0.000939   0.000000  -0.000556
     14       0.000000   0.133183  -0.000000  -0.010543  -0.000000  -0.000000
     15       0.000001   0.108071  -0.000000  -0.008555  -0.000000   0.000000
     16      -0.117262  -0.044394   0.044905   0.013976   0.010718  -0.010842
     17      -0.095152  -0.036024   0.036438   0.011341   0.008698  -0.008798
     18       0.097520  -0.044394   0.079099   0.006415  -0.008914   0.015883
     19       0.079132  -0.036024   0.064185   0.005205  -0.007233   0.012888
     20       0.019742  -0.044394  -0.124004  -0.009848  -0.001805  -0.005041
     21       0.016019  -0.036024  -0.100623  -0.007991  -0.001464  -0.004090
                 12         13         14         15         16         17    
      0      -0.000000  -0.000000  -0.054130  -0.006678  -0.054130  -0.006677
      1       0.000000   0.000000   0.102117   0.025017   0.102118   0.025017
      2      -0.005870  -0.000000   0.000001   0.000001  -0.226454  -0.183756
      3       0.027300   0.000000   0.257200   0.208704  -0.085733  -0.069568
      4       0.011453  -0.018200  -0.000000  -0.000001   0.086720   0.070368
      5      -0.000000   0.000000   0.102524   0.024838   0.102524   0.024837
      6      -0.003040  -0.000000   0.000000   0.000001  -0.117262  -0.095152
      7       0.014137  -0.000000   0.133183   0.108071  -0.044394  -0.036024
      8       0.005930  -0.009425  -0.000000  -0.000000   0.044905   0.036438
      9      -0.000373  -0.000939  -0.010543  -0.008555   0.013976   0.011341
     10       0.000278   0.000000  -0.000000  -0.000000   0.010718   0.008698
     11      -0.000000  -0.000556  -0.000000   0.000000  -0.010842  -0.008798
     12       0.002369  -0.000542   0.018261   0.014818  -0.000047  -0.000038
     13      -0.000542   0.000861   0.000000   0.000000  -0.004105  -0.003331
     14       0.018261   0.000000   0.209336   0.148675  -0.020046  -0.037458
     15       0.014818   0.000000   0.148675   0.115507  -0.037458  -0.035530
     16      -0.000047  -0.004105  -0.020046  -0.037458   0.209337   0.148675
     17      -0.000038  -0.003331  -0.037458  -0.035530   0.148675   0.115507
     18      -0.004412  -0.007230  -0.020047  -0.037457  -0.020046  -0.037457
     19      -0.003580  -0.005867  -0.037457  -0.035529  -0.037457  -0.035530
     20      -0.013802   0.011335  -0.020047  -0.037457  -0.020047  -0.037457
     21      -0.011199   0.009198  -0.037457  -0.035529  -0.037457  -0.035529
                 18         19         20         21    
      0      -0.054130  -0.006678  -0.054130  -0.006678
      1       0.102117   0.025017   0.102117   0.025017
      2       0.188328   0.152818   0.038125   0.030937
      3      -0.085734  -0.069568  -0.085733  -0.069568
      4       0.152755   0.123953  -0.239474  -0.194321
      5       0.102525   0.024838   0.102525   0.024838
      6       0.097520   0.079132   0.019742   0.016019
      7      -0.044394  -0.036024  -0.044394  -0.036024
      8       0.079099   0.064185  -0.124004  -0.100623
      9       0.006415   0.005205  -0.009848  -0.007991
     10      -0.008914  -0.007233  -0.001805  -0.001464
     11       0.015883   0.012888  -0.005041  -0.004090
     12      -0.004412  -0.003580  -0.013802  -0.011199
     13      -0.007230  -0.005867   0.011335   0.009198
     14      -0.020047  -0.037457  -0.020047  -0.037457
     15      -0.037457  -0.035529  -0.037457  -0.035529
     16      -0.020046  -0.037457  -0.020047  -0.037457
     17      -0.037457  -0.035530  -0.037457  -0.035529
     18       0.209336   0.148675  -0.020047  -0.037457
     19       0.148675   0.115508  -0.037457  -0.035530
     20      -0.020047  -0.037457   0.209336   0.148675
     21      -0.037457  -0.035530   0.148675   0.115508



                    ********************************
                    * MULLIKEN POPULATION ANALYSIS *
                    ********************************

-----------------------
MULLIKEN ATOMIC CHARGES
-----------------------
   0 C :   -0.681784
   1 H :    0.170446
   2 H :    0.170447
   3 H :    0.170446
   4 H :    0.170446
Sum of atomic charges:    0.0000000

------------------------
MULLIKEN ORBITAL CHARGES
------------------------
The uncorrected charge=density diagonal is given in parenthesis)
   0:   0C   1s           1.997593 (  2.062534)
   1:   0C   2s           0.652655 (  0.280927)
   2:   0C   1pz          0.703017 (  0.384520)
   3:   0C   1px          0.703016 (  0.384520)
   4:   0C   1py          0.703015 (  0.384519)
   5:   0C   3s           0.704897 (  0.282370)
   6:   0C   2pz          0.391706 (  0.103103)
   7:   0C   2px          0.391707 (  0.103103)
   8:   0C   2py          0.391707 (  0.103104)
   9:   0C   1dz2         0.010618 (  0.001938)
  10:   0C   1dxz         0.004719 (  0.000861)
  11:   0C   1dyz         0.009438 (  0.001723)
  12:   0C   1dx2y2       0.012977 (  0.002369)
  13:   0C   1dxy         0.004719 (  0.000861)
  14:   1H   1s           0.529395 (  0.209336)
  15:   1H   2s           0.300159 (  0.115507)
  16:   2H   1s           0.529396 (  0.209337)
  17:   2H   2s           0.300157 (  0.115507)
  18:   3H   1s           0.529395 (  0.209336)
  19:   3H   2s           0.300159 (  0.115508)
  20:   4H   1s           0.529395 (  0.209336)
  21:   4H   2s           0.300160 (  0.115508)
Sum of orbital charges :   10.0000000

--------------------------------
MULLIKEN REDUCED ORBITAL CHARGES
--------------------------------
  0 C s       :     3.355145  s :     3.355145
      pz      :     1.094723  p :     3.284168
      px      :     1.094723
      py      :     1.094722
      dz2     :     0.010618  d :     0.042472
      dxz     :     0.004719
      dyz     :     0.009438
      dx2y2   :     0.012977
      dxy     :     0.004719
  1 H s       :     0.829554  s :     0.829554
  2 H s       :     0.829553  s :     0.829553
  3 H s       :     0.829554  s :     0.829554
  4 H s       :     0.829554  s :     0.829554

------------------------
MULLIKEN OVERLAP CHARGES
------------------------
B(  0-C ,  1-H ) :   0.7797 B(  0-C ,  2-H ) :   0.7797 B(  0-C ,  3-H ) :   0.7797 
B(  0-C ,  4-H ) :   0.7797 B(  1-H ,  2-H ) :  -0.0539 B(  1-H ,  3-H ) :  -0.0539 
B(  1-H ,  4-H ) :  -0.0539 B(  2-H ,  3-H ) :  -0.0539 B(  2-H ,  4-H ) :  -0.0539 
B(  3-H ,  4-H ) :  -0.0539 

-----------------------------------
MULLIKEN ORBITAL POPULATIONS PER MO
-----------------------------------
THRESHOLD FOR PRINTING IS 0.1%
                      0         1         2         3         4         5   
                 -11.19401  -0.95033  -0.54977  -0.54977  -0.54977   0.25984
                   2.00000   2.00000   2.00000   2.00000   2.00000   0.00000
                  --------  --------  --------  --------  --------  --------
  0C   1s             99.6       0.3       0.0       0.0       0.0       0.1
  0C   2s              0.6      32.0       0.0       0.0       0.0       2.7
  0C   1pz             0.0       0.0      24.9       3.8       6.4       0.0
  0C   1px             0.0       0.0       7.5      25.4       2.3       0.0
  0C   1py             0.0       0.0       2.8       5.9      26.5       0.0
  0C   3s             -0.3      35.6       0.0       0.0       0.0     -33.1
  0C   2pz            -0.0       0.0      13.9       2.1       3.6       0.0
  0C   2px            -0.0       0.0       4.2      14.2       1.3       0.0
  0C   2py            -0.0       0.0       1.5       3.3      14.7       0.0
  0C   1dz2            0.0       0.0       0.0       0.4       0.1       0.0
  0C   1dxz           -0.0       0.0       0.2       0.0       0.0       0.0
  0C   1dyz            0.0       0.0       0.2       0.0       0.3       0.0
  0C   1dx2y2          0.0       0.0       0.3       0.2       0.1       0.0
  0C   1dxy            0.0      -0.0       0.0       0.0       0.2       0.0
  1H   1s             -0.0       5.8       4.4      14.9       1.3      -0.1
  1H   2s              0.0       2.2       2.7       9.3       0.8      32.6
  2H   1s             -0.0       5.8       9.6      10.4       0.6      -0.1
  2H   2s              0.0       2.2       6.0       6.5       0.4      32.6
  3H   1s             -0.0       5.8       7.5       1.7      11.4      -0.1
  3H   2s              0.0       2.2       4.7       1.1       7.1      32.6
[...]
  0C   1dz2            9.0       1.3      46.9      16.0
  0C   1dxz           12.8      15.2       0.2      13.1
  0C   1dyz           21.3      14.9      14.0      28.2
  0C   1dx2y2          3.0      51.5       0.0      26.9
  0C   1dxy           53.9       2.6      24.5       1.4
  1H   1s              0.0       3.7       1.3       4.9
  2H   1s              0.0       2.9       1.3       5.7
  3H   1s              0.0       3.1       5.3       1.5
  4H   1s              0.0       3.5       5.3       1.1


                     *******************************
                     * LOEWDIN POPULATION ANALYSIS *
                     *******************************

----------------------
LOEWDIN ATOMIC CHARGES
----------------------
   0 C :   -0.516756
   1 H :    0.129189
   2 H :    0.129189
   3 H :    0.129189
   4 H :    0.129189

-----------------------
LOEWDIN ORBITAL CHARGES
-----------------------
   0:   0C   1s           1.990001
   1:   0C   2s           0.555926
   2:   0C   1pz          0.629090
   3:   0C   1px          0.629090
   4:   0C   1py          0.629090
   5:   0C   3s           0.467394
   6:   0C   2pz          0.518194
   7:   0C   2px          0.518194
   8:   0C   2py          0.518194
   9:   0C   1dz2         0.015396
  10:   0C   1dxz         0.006842
  11:   0C   1dyz         0.013685
  12:   0C   1dx2y2       0.018817
  13:   0C   1dxy         0.006843
  14:   1H   1s           0.496525
  15:   1H   2s           0.374286
  16:   2H   1s           0.496525
  17:   2H   2s           0.374286
  18:   3H   1s           0.496525
  19:   3H   2s           0.374286
  20:   4H   1s           0.496525
  21:   4H   2s           0.374286

-------------------------------
LOEWDIN REDUCED ORBITAL CHARGES
-------------------------------
  0 C s       :     3.013321  s :     3.013321
      pz      :     1.147284  p :     3.441852
      px      :     1.147284
      py      :     1.147284
      dz2     :     0.015396  d :     0.061583
      dxz     :     0.006842
      dyz     :     0.013685
      dx2y2   :     0.018817
      dxy     :     0.006843
  1 H s       :     0.870811  s :     0.870811
  2 H s       :     0.870811  s :     0.870811
  3 H s       :     0.870811  s :     0.870811
  4 H s       :     0.870811  s :     0.870811

---------------------------------
LOEWDIN BOND ORDERS (THRESH 0.050000)
---------------------------------
B(  0-C ,  1-H ) :   0.9796 B(  0-C ,  2-H ) :   0.9796 B(  0-C ,  3-H ) :   0.9796 
B(  0-C ,  4-H ) :   0.9796 

----------------------------------
LOEWDIN ORBITAL POPULATIONS PER MO
----------------------------------
THRESHOLD FOR PRINTING IS 0.1%
                      0         1         2         3         4         5   
                 -11.20078  -0.94462  -0.54622  -0.54622  -0.54621   0.25720
                   2.00000   2.00000   2.00000   2.00000   2.00000   0.00000
                  --------  --------  --------  --------  --------  --------
  0C   1s             97.9       1.6       0.0       0.0       0.0       0.2
  0C   2s              1.3      26.5       0.0       0.0       0.0      27.5
  0C   1pz             0.0       0.0      15.8       0.9      14.7       0.0
  0C   1px             0.0       0.0      12.5       2.4      16.5       0.0
  0C   1py             0.0       0.0       3.1      28.1       0.2       0.0
  0C   3s              0.6      22.8       0.0       0.0       0.0      11.4
  0C   2pz             0.0       0.0      13.0       0.8      12.1       0.0
  0C   2px             0.0       0.0      10.3       2.0      13.6       0.0
  0C   2py             0.0       0.0       2.6      23.1       0.2       0.0
  0C   1dz2            0.0       0.0       0.0       0.5       0.3       0.0
  0C   1dxz            0.0       0.0       0.2       0.0       0.2       0.0
  0C   1dyz            0.0       0.0       0.2       0.2       0.3       0.0
  0C   1dx2y2          0.0       0.0       0.6       0.0       0.3       0.0
  0C   1dxy            0.0       0.0       0.0       0.3       0.0       0.0
  1H   1s              0.0       4.9       7.9       1.5      10.5       0.0
  1H   2s              0.1       7.4       4.5       0.9       5.9      15.2
  2H   1s              0.0       4.9       5.4       1.3      13.2       0.0
  2H   2s              0.1       7.4       3.1       0.8       7.5      15.2
  3H   1s              0.0       4.9       5.9      12.1       1.9       0.0
  3H   2s              0.1       7.4       3.3       6.9       1.1      15.2
  4H   1s              0.0       4.9       7.4      11.5       1.0       0.0
  4H   2s              0.1       7.4       4.2       6.5       0.6      15.2

                      6         7         8         9        10        11   
                   0.32777   0.32777   0.32777   0.72824   0.72824   0.72824
                   0.00000   0.00000   0.00000   0.00000   0.00000   0.00000
                  --------  --------  --------  --------  --------  --------
  0C   1pz             9.1       0.3      10.2       8.7       0.0      10.8
  0C   1px            10.1       2.0       7.5       8.8       3.7       7.0
  0C   1py             0.4      17.3       1.9       2.0      15.8       1.7
  0C   2pz             6.0       0.2       6.7      23.5       0.0      29.0
  0C   2px             6.7       1.3       5.0      23.7      10.0      18.8
  0C   2py             0.3      11.4       1.2       5.3      42.5       4.7
  0C   1dz2            0.7       1.5       0.0       0.9       4.6       0.1
  0C   1dxz            0.5       0.0       0.5       1.1       0.0       1.4
  0C   1dyz            0.9       0.6       0.5       2.7       0.9       1.4
  0C   1dx2y2          0.9       0.0       1.9       2.5       0.0       4.4
  0C   1dxy            0.0       0.9       0.1       0.3       2.0       0.2
  1H   1s              1.9       0.4       1.4       4.7       2.0       3.8
  1H   2s             22.9       4.5      17.1       2.2       0.9       1.8
  2H   1s              2.3       0.4       1.1       5.2       2.0       3.2
  2H   2s             27.6       4.3      12.6       2.4       0.9       1.5
  3H   1s              0.5       2.1       1.1       2.2       4.9       3.3
  3H   2s              5.4      25.6      13.5       1.0       2.3       1.6
  4H   1s              0.3       2.1       1.3       1.8       5.0       3.6
  4H   2s              3.4      25.0      16.1       0.9       2.3       1.7

                     12        13        14        15        16        17   
                   1.18442   1.18442   1.18442   1.25445   1.33015   1.94068
                   0.00000   0.00000   0.00000   0.00000   0.00000   0.00000
                  --------  --------  --------  --------  --------  --------
  0C   1s              0.0       0.0       0.0       0.3       0.0       0.0
  0C   2s              0.0       0.0       0.0      20.2      24.5       0.0
  0C   1pz            13.4       1.0      14.3       0.0       0.0       0.0
  0C   1px            15.1       2.1      11.5       0.0       0.0       0.0
  0C   1py             0.2      25.6       2.9       0.0       0.0       0.0
  0C   3s              0.0       0.0       0.0       0.6      64.6       0.0
  0C   2pz             3.1       0.2       3.3       0.0       0.0       0.0
  0C   2px             3.5       0.5       2.6       0.0       0.0       0.0
  0C   2py             0.0       5.9       0.7       0.0       0.0       0.0
  0C   1dz2            3.2       5.0       0.1       0.0       0.0      16.0
  0C   1dxz            1.8       0.1       1.9       0.0       0.0      53.9
  0C   1dyz            3.1       2.6       1.8       0.0       0.0      12.0
  0C   1dx2y2          3.1       0.1       7.1       0.0       0.0       5.3
  0C   1dxy            0.0       3.3       0.4       0.0       0.0      12.8
  1H   1s             13.7       1.9      10.4      17.4       2.7       0.0
  1H   2s              7.4       1.0       5.7       2.4       0.0       0.0
  2H   1s             17.5       1.6       7.0      17.4       2.7       0.0
  2H   2s              9.5       0.9       3.8       2.4       0.0       0.0
  3H   1s              2.4      16.1       7.6      17.4       2.7       0.0
  3H   2s              1.3       8.7       4.1       2.4       0.0       0.0
  4H   1s              1.1      15.2       9.7      17.4       2.7       0.0
  4H   2s              0.6       8.2       5.3       2.4       0.0       0.0

                     18        19        20        21   
                   1.94068   2.59156   2.59156   2.59156
                   0.00000   0.00000   0.00000   0.00000
                  --------  --------  --------  --------
  0C   1pz             0.0       0.4       0.0       0.4
  0C   1px             0.0       0.3       0.1       0.4
  0C   1py             0.0       0.1       0.7       0.0
  0C   2pz             0.0       1.1       0.0       0.9
  0C   2px             0.0       0.7       0.3       1.0
  0C   2py             0.0       0.2       1.7       0.1
  0C   1dz2            9.0       1.1      42.3      14.4
  0C   1dxz           12.8      13.7       0.2      11.8
  0C   1dyz           21.3      13.5      12.6      25.4
  0C   1dx2y2          3.0      46.4       0.0      24.3
  0C   1dxy           53.9       2.4      22.1       1.2
  1H   1s              0.0       5.5       2.0       7.3
  2H   1s              0.0       4.4       2.0       8.5
  3H   1s              0.0       4.6       8.0       2.3
  4H   1s              0.0       5.3       7.9       1.7

------------------------------------------
LOEWDIN REDUCED ORBITAL POPULATIONS PER MO
-------------------------------------------
THRESHOLD FOR PRINTING IS 0.1%
                      0         1         2         3         4         5   
                 -11.20078  -0.94462  -0.54622  -0.54622  -0.54621   0.25720
                   2.00000   2.00000   2.00000   2.00000   2.00000   0.00000
                  --------  --------  --------  --------  --------  --------
 0 C  s              99.7      51.0       0.0       0.0       0.0      39.1
 0 C  pz              0.0       0.0      28.9       1.7      26.8       0.0
 0 C  px              0.0       0.0      22.8       4.4      30.1       0.0
 0 C  py              0.0       0.0       5.7      51.2       0.4       0.0
 0 C  dz2             0.0       0.0       0.0       0.5       0.3       0.0
 0 C  dxz             0.0       0.0       0.2       0.0       0.2       0.0
 0 C  dyz             0.0       0.0       0.2       0.2       0.3       0.0
 0 C  dx2y2           0.0       0.0       0.6       0.0       0.3       0.0
 0 C  dxy             0.0       0.0       0.0       0.3       0.0       0.0
 1 H  s               0.1      12.3      12.4       2.4      16.4      15.2
 2 H  s               0.1      12.3       8.5       2.1      20.6      15.2
 3 H  s               0.1      12.3       9.2      19.0       3.0      15.2
 4 H  s               0.1      12.3      11.6      18.1       1.5      15.2

                      6         7         8         9        10        11   
                   0.32777   0.32777   0.32777   0.72824   0.72824   0.72824
                   0.00000   0.00000   0.00000   0.00000   0.00000   0.00000
                  --------  --------  --------  --------  --------  --------
 0 C  pz             15.1       0.5      16.9      32.3       0.0      39.7
 0 C  px             16.7       3.3      12.5      32.5      13.7      25.9
 0 C  py              0.7      28.7       3.1       7.3      58.3       6.4
 0 C  dz2             0.7       1.5       0.0       0.9       4.6       0.1
 0 C  dxz             0.5       0.0       0.5       1.1       0.0       1.4
 0 C  dyz             0.9       0.6       0.5       2.7       0.9       1.4
 0 C  dx2y2           0.9       0.0       1.9       2.5       0.0       4.4
 0 C  dxy             0.0       0.9       0.1       0.3       2.0       0.2
 1 H  s              24.8       4.9      18.6       6.9       2.9       5.5
 2 H  s              29.9       4.6      13.7       7.7       3.0       4.7
 3 H  s               5.9      27.7      14.7       3.2       7.3       4.9
 4 H  s               3.7      27.1      17.4       2.7       7.3       5.3

                     12        13        14        15        16        17   
                   1.18442   1.18442   1.18442   1.25445   1.33015   1.94068
                   0.00000   0.00000   0.00000   0.00000   0.00000   0.00000
                  --------  --------  --------  --------  --------  --------
 0 C  s               0.0       0.0       0.0      21.1      89.2       0.0
 0 C  pz             16.5       1.2      17.6       0.0       0.0       0.0
 0 C  px             18.6       2.5      14.1       0.0       0.0       0.0
 0 C  py              0.2      31.5       3.5       0.0       0.0       0.0
 0 C  dz2             3.2       5.0       0.1       0.0       0.0      16.0
 0 C  dxz             1.8       0.1       1.9       0.0       0.0      53.9
 0 C  dyz             3.1       2.6       1.8       0.0       0.0      12.0
 0 C  dx2y2           3.1       0.1       7.1       0.0       0.0       5.3
 0 C  dxy             0.0       3.3       0.4       0.0       0.0      12.8
 1 H  s              21.2       2.9      16.1      19.7       2.7       0.0
 2 H  s              27.0       2.4      10.8      19.7       2.7       0.0
 3 H  s               3.7      24.8      11.7      19.7       2.7       0.0
 4 H  s               1.8      23.4      15.0      19.7       2.7       0.0

                     18        19        20        21   
                   1.94068   2.59156   2.59156   2.59156
                   0.00000   0.00000   0.00000   0.00000
                  --------  --------  --------  --------
 0 C  pz              0.0       1.5       0.0       1.3
 0 C  px              0.0       1.0       0.4       1.4
 0 C  py              0.0       0.3       2.4       0.1
 0 C  dz2             9.0       1.1      42.3      14.4
 0 C  dxz            12.8      13.7       0.2      11.8
 0 C  dyz            21.3      13.5      12.6      25.4
 0 C  dx2y2           3.0      46.4       0.0      24.3
 0 C  dxy            53.9       2.4      22.1       1.2
 1 H  s               0.0       5.6       2.0       7.4
 2 H  s               0.0       4.4       2.0       8.6
 3 H  s               0.0       4.7       8.0       2.3
 4 H  s               0.0       5.3       8.0       1.7


                      *****************************
                      * MAYER POPULATION ANALYSIS *
                      *****************************

  NA   - Mulliken gross atomic population
  ZA   - Total nuclear charge
  QA   - Mulliken gross atomic charge
  VA   - Mayer's total valence
  BVA  - Mayer's bonded valence
  FA   - Mayer's free valence

  ATOM       NA         ZA         QA         VA         BVA        FA
  0 C      6.6779     6.0000    -0.6779     3.8359     3.8359     0.0000
  1 H      0.8305     1.0000     0.1695     0.9299     0.9299    -0.0000
  2 H      0.8305     1.0000     0.1695     0.9299     0.9299    -0.0000
  3 H      0.8305     1.0000     0.1695     0.9299     0.9299    -0.0000
  4 H      0.8305     1.0000     0.1695     0.9299     0.9299    -0.0000

  Mayer bond orders larger than 0.100000
B(  0-C ,  1-H ) :   0.9590 B(  0-C ,  2-H ) :   0.9590 B(  0-C ,  3-H ) :   0.9590 
B(  0-C ,  4-H ) :   0.9590 

-------
TIMINGS
-------

Total SCF time: 0 days 0 hours 0 min 0 sec 

Total time                  ....       0.442 sec
Sum of individual times     ....       0.158 sec  ( 35.7%)

Fock matrix formation       ....       0.066 sec  ( 14.8%)
Diagonalization             ....       0.003 sec  (  0.6%)
Density matrix formation    ....       0.000 sec  (  0.0%)
Population analysis         ....       0.083 sec  ( 18.8%)
Initial guess               ....       0.001 sec  (  0.3%)
Orbital Transformation      ....       0.000 sec  (  0.0%)
Orbital Orthonormalization  ....       0.000 sec  (  0.0%)
DIIS solution               ....       0.000 sec  (  0.0%)
SOSCF solution              ....       0.005 sec  (  1.2%)

Maximum memory used throughout the entire SCF-calculation: 224.5 MB

-------------------------   --------------------
FINAL SINGLE POINT ENERGY       -40.194840702403
-------------------------   --------------------

                                *** OPTIMIZATION RUN DONE ***

                            ***************************************
                            *     ORCA property calculations      *
                            ***************************************

                                    ---------------------
                                    Active property flags
                                    ---------------------
   (+) Dipole Moment


------------------------------------------------------------------------------
                       ORCA ELECTRIC PROPERTIES CALCULATION
------------------------------------------------------------------------------

Dipole Moment Calculation                       ... on
Quadrupole Moment Calculation                   ... off
Polarizability Calculation                      ... off
GBWName                                         ... result.gbw
Electron density                                ... result.scfp
----------------------
SHARK INTEGRAL PACKAGE
----------------------

Number of atoms                             ...      5
Number of basis functions                   ...     22
Number of shells                            ...     14
Maximum angular momentum                    ...      2
Integral batch strategy                     ... SHARK/LIBINT Hybrid
RI-J (if used) integral strategy            ... SPLIT-RIJ (Revised 2003 algorithm where possible)
Printlevel                                  ...      2
Contraction scheme used                     ... SEGMENTED contraction
Coulomb Range Separation                    ... NOT USED
Exchange Range Separation                   ... NOT USED
Finite Nucleus Model                        ... NOT USED
Auxiliary Coulomb fitting basis             ... NOT available
Auxiliary J/K fitting basis                 ... NOT available
Auxiliary Correlation fitting basis         ... NOT available
Auxiliary 'external' fitting basis          ... NOT available
Integral threshold                          ...     2.500000e-11
Primitive cut-off                           ...     2.500000e-12
Primitive pair pre-selection threshold      ...     2.500000e-12

The origin for moment calculation is the CENTER OF MASS  = (-1.214111,  0.679243  0.000000)

-------------
DIPOLE MOMENT
-------------
                                X             Y             Z
Electronic contribution:     -0.00000      -0.00000       0.00000
Nuclear contribution   :      0.00000       0.00000      -0.00000
                        -----------------------------------------
Total Dipole Moment    :      0.00000       0.00000      -0.00000
                        -----------------------------------------
Magnitude (a.u.)       :      0.00000
Magnitude (Debye)      :      0.00000



--------------------
Rotational spectrum 
--------------------
 
Rotational constants in cm-1:     5.339736     5.339732     5.339730 
Rotational constants in MHz : 160081.270318 160081.129216 160081.084330 

 Dipole components along the rotational axes: 
x,y,z [a.u.] :    -0.000000     0.000000     0.000000 
x,y,z [Debye]:    -0.000000     0.000000     0.000000 

 

Timings for individual modules:

Sum of individual times         ...        2.160 sec (=   0.036 min)
GTO integral calculation        ...        0.325 sec (=   0.005 min)  15.0 %
SCF iterations                  ...        1.605 sec (=   0.027 min)  74.3 %
SCF Gradient evaluation         ...        0.161 sec (=   0.003 min)   7.4 %
Geometry relaxation             ...        0.070 sec (=   0.001 min)   3.2 %
                             ****ORCA TERMINATED NORMALLY****
TOTAL RUN TIME: 0 days 0 hours 0 minutes 4 seconds 265 msec
