
                                 *****************
                                 * O   R   C   A *
                                 *****************

                                            #,                                       
                                            ###                                      
                                            ####                                     
                                            #####                                    
                                            ######                                   
                                           ########,                                 
                                     ,,################,,,,,                         
                               ,,#################################,,                 
                          ,,##########################################,,             
                       ,#########################################, ''#####,          
                    ,#############################################,,   '####,        
                  ,##################################################,,,,####,       
                ,###########''''           ''''###############################       
              ,#####''   ,,,,##########,,,,          '''####'''          '####       
            ,##' ,,,,###########################,,,                        '##       
           ' ,,###''''                  '''############,,,                           
         ,,##''                                '''############,,,,        ,,,,,,###''
      ,#''                                            '''#######################'''  
     '                                                          ''''####''''         
             ,#######,   #######,   ,#######,      ##                                
            ,#'     '#,  ##    ##  ,#'     '#,    #''#        ######   ,####,        
            ##       ##  ##   ,#'  ##            #'  '#       #        #'  '#        
            ##       ##  #######   ##           ,######,      #####,   #    #        
            '#,     ,#'  ##    ##  '#,     ,#' ,#      #,         ##   #,  ,#        
             '#######'   ##     ##  '#######'  #'      '#     #####' # '####'        



                  #######################################################
                  #                        -***-                        #
                  #          Department of theory and spectroscopy      #
                  #    Directorship and core code : Frank Neese         #
                  #        Max Planck Institute fuer Kohlenforschung    #
                  #                Kaiser Wilhelm Platz 1               #
                  #                 D-45470 Muelheim/Ruhr               #
                  #                      Germany                        #
                  #                                                     #
                  #                  All rights reserved                #
                  #                        -***-                        #
                  #######################################################


                         Program Version 5.0.1 -  RELEASE  -


 With contributions from (in alphabetic order):
   Daniel Aravena         : Magnetic Suceptibility
   Michael Atanasov       : Ab Initio Ligand Field Theory (pilot matlab implementation)
   Alexander A. Auer      : GIAO ZORA, VPT2 properties, NMR spectrum
   Ute Becker             : Parallelization
   Giovanni Bistoni       : ED, misc. LED, open-shell LED, HFLD
   Martin Brehm           : Molecular dynamics
   Dmytro Bykov           : SCF Hessian
   Vijay G. Chilkuri      : MRCI spin determinant printing, contributions to CSF-ICE
   Dipayan Datta          : RHF DLPNO-CCSD density
   Achintya Kumar Dutta   : EOM-CC, STEOM-CC
   Dmitry Ganyushin       : Spin-Orbit,Spin-Spin,Magnetic field MRCI
   Miquel Garcia          : C-PCM and meta-GGA Hessian, CC/C-PCM, Gaussian charge scheme
   Yang Guo               : DLPNO-NEVPT2, F12-NEVPT2, CIM, IAO-localization
   Andreas Hansen         : Spin unrestricted coupled pair/coupled cluster methods
   Benjamin Helmich-Paris : MC-RPA, TRAH-SCF, COSX integrals
   Lee Huntington         : MR-EOM, pCC
   Robert Izsak           : Overlap fitted RIJCOSX, COSX-SCS-MP3, EOM
   Marcus Kettner         : VPT2
   Christian Kollmar      : KDIIS, OOCD, Brueckner-CCSD(T), CCSD density, CASPT2, CASPT2-K
   Simone Kossmann        : Meta GGA functionals, TD-DFT gradient, OOMP2, MP2 Hessian
   Martin Krupicka        : Initial AUTO-CI
   Lucas Lang             : DCDCAS
   Marvin Lechner         : AUTO-CI (C++ implementation), FIC-MRCC
   Dagmar Lenk            : GEPOL surface, SMD
   Dimitrios Liakos       : Extrapolation schemes; Compound Job, initial MDCI parallelization
   Dimitrios Manganas     : Further ROCIS development; embedding schemes
   Dimitrios Pantazis     : SARC Basis sets
   Anastasios Papadopoulos: AUTO-CI, single reference methods and gradients
   Taras Petrenko         : DFT Hessian,TD-DFT gradient, ASA, ECA, R-Raman, ABS, FL, XAS/XES, NRVS
   Peter Pinski           : DLPNO-MP2, DLPNO-MP2 Gradient
   Christoph Reimann      : Effective Core Potentials
   Marius Retegan         : Local ZFS, SOC
   Christoph Riplinger    : Optimizer, TS searches, QM/MM, DLPNO-CCSD(T), (RO)-DLPNO pert. Triples
   Tobias Risthaus        : Range-separated hybrids, TD-DFT gradient, RPA, STAB
   Michael Roemelt        : Original ROCIS implementation
   Masaaki Saitow         : Open-shell DLPNO-CCSD energy and density
   Barbara Sandhoefer     : DKH picture change effects
   Avijit Sen             : IP-ROCIS
   Kantharuban Sivalingam : CASSCF convergence, NEVPT2, FIC-MRCI
   Bernardo de Souza      : ESD, SOC TD-DFT
   Georgi Stoychev        : AutoAux, RI-MP2 NMR, DLPNO-MP2 response
   Willem Van den Heuvel  : Paramagnetic NMR
   Boris Wezisla          : Elementary symmetry handling
   Frank Wennmohs         : Technical directorship


 We gratefully acknowledge several colleagues who have allowed us to
 interface, adapt or use parts of their codes:
   Stefan Grimme, W. Hujo, H. Kruse, P. Pracht,  : VdW corrections, initial TS optimization,
                  C. Bannwarth, S. Ehlert          DFT functionals, gCP, sTDA/sTD-DF
   Ed Valeev, F. Pavosevic, A. Kumar             : LibInt (2-el integral package), F12 methods
   Garnet Chan, S. Sharma, J. Yang, R. Olivares  : DMRG
   Ulf Ekstrom                                   : XCFun DFT Library
   Mihaly Kallay                                 : mrcc  (arbitrary order and MRCC methods)
   Jiri Pittner, Ondrej Demel                    : Mk-CCSD
   Frank Weinhold                                : gennbo (NPA and NBO analysis)
   Christopher J. Cramer and Donald G. Truhlar   : smd solvation model
   Lars Goerigk                                  : TD-DFT with DH, B97 family of functionals
   V. Asgeirsson, H. Jonsson                     : NEB implementation
   FAccTs GmbH                                   : IRC, NEB, NEB-TS, DLPNO-Multilevel, CI-OPT
                                                   MM, QMMM, 2- and 3-layer-ONIOM, Crystal-QMMM,
                                                   LR-CPCM, SF, NACMEs, symmetry and pop. for TD-DFT,
                                                   nearIR, NL-DFT gradient (VV10), updates on ESD,
                                                   ML-optimized integration grids
   S Lehtola, MJT Oliveira, MAL Marques          : LibXC Library
   Liviu Ungur et al                             : ANISO software


 Your calculation uses the libint2 library for the computation of 2-el integrals
 For citations please refer to: http://libint.valeyev.net

 Your ORCA version has been built with support for libXC version: 5.1.0
 For citations please refer to: https://tddft.org/programs/libxc/

 This ORCA versions uses:
   CBLAS   interface :  Fast vector & matrix operations
   LAPACKE interface :  Fast linear algebra routines
   SCALAPACK package :  Parallel linear algebra routines
   Shared memory     :  Shared parallel matrices
   BLAS/LAPACK       :  OpenBLAS 0.3.15  USE64BITINT DYNAMIC_ARCH NO_AFFINITY Haswell SINGLE_THREADED
        Core in use  :  Haswell
   Copyright (c) 2011-2014, The OpenBLAS Project


================================================================================

----- Orbital basis set information -----
Your calculation utilizes the basis: 6-31G(d)
   H-He, Li-Ne : W. J. Hehre, R. Ditchfield and J.A. Pople, J. Chem. Phys. 56, 2257 (1972).
                 Note: He and Ne are unpublished basis sets taken from the Gaussian program.
                 Note: Li and B from J. D. Dill and J. A. Pople, J. Chem. Phys. 62, 2921 (1975).
   Na - Ar     : M. M. Francl, W. J. Pietro, W. J. Hehre, J. S. Binkley, M. S. Gordon, 
                 D. J. DeFrees and J. A. Pople, J. Chem. Phys. 77, 3654 (1982).
   K - Zn      : V. A. Rassolov, J. A. Pople, M. A. Ratner, and T. L. Windus, J. Chem. Phys. 109, 1223 (1998).

================================================================================
                                        WARNINGS
                       Please study these warnings very carefully!
================================================================================


WARNING: Geometry Optimization
  ===> : Switching off AutoStart
         For restart on a previous wavefunction, please use MOREAD

INFO   : the flag for use of the SHARK integral package has been found!

================================================================================
                                       INPUT FILE
================================================================================
NAME = result.inp
|  1> # avogadro generated ORCA input file 
|  2> # Basic Mode
|  3> # 
|  4> ! HF OPT 6-31g(d) LargePrint 
|  5> 
|  6> * xyz 0 1
|  7>    N       -1.45872        0.98764        0.00000
|  8>    F       -0.43872        0.98764        0.00000
|  9>    F       -1.79871        0.69718       -0.91675
| 10>    F       -1.79872        1.92680        0.20683
| 11> *
| 12> 
| 13> 
| 14>                          ****END OF INPUT****
================================================================================

                       *****************************
                       * Geometry Optimization Run *
                       *****************************

Geometry optimization settings:
Update method            Update   .... BFGS
Choice of coordinates    CoordSys .... Z-matrix Internals
Initial Hessian          InHess   .... Almoef's Model

Convergence Tolerances:
Energy Change            TolE     ....  5.0000e-06 Eh
Max. Gradient            TolMAXG  ....  3.0000e-04 Eh/bohr
RMS Gradient             TolRMSG  ....  1.0000e-04 Eh/bohr
Max. Displacement        TolMAXD  ....  4.0000e-03 bohr
RMS Displacement         TolRMSD  ....  2.0000e-03 bohr
Strict Convergence                ....  False
------------------------------------------------------------------------------
                        ORCA OPTIMIZATION COORDINATE SETUP
------------------------------------------------------------------------------

The optimization will be done in new redundant internal coordinates
Making redundant internal coordinates   ...  (new redundants) done
Evaluating the initial hessian          ...  (Almloef) done
Evaluating the coordinates              ...  done
Calculating the B-matrix                .... done
Calculating the G-matrix                .... done
Diagonalizing the G-matrix              .... done
The first mode is                       ....   24
The number of degrees of freedom        ....    6

    -----------------------------------------------------------------
                    Redundant Internal Coordinates


    -----------------------------------------------------------------
         Definition                    Initial Value    Approx d2E/dq
    -----------------------------------------------------------------
      1. B(F   1,N   0)                  1.0200         1.813072   
      2. B(F   2,F   1)                  1.6656         0.157189   
      3. B(F   2,N   0)                  1.0200         1.813102   
      4. B(F   3,F   2)                  1.6657         0.157184   
      5. B(F   3,F   1)                  1.6657         0.157184   
      6. B(F   3,N   0)                  1.0200         1.813071   
      7. A(F   2,N   0,F   3)          109.4715         0.625290   
      8. A(F   1,N   0,F   2)          109.4707         0.625290   
      9. A(F   1,N   0,F   3)          109.4712         0.625288   
     10. A(F   2,F   1,F   3)           60.0001         0.264237   
     11. A(N   0,F   1,F   3)           35.2644         0.395556   
     12. A(N   0,F   1,F   2)           35.2646         0.395559   
     13. A(N   0,F   2,F   1)           35.2647         0.395560   
     14. A(F   1,F   2,F   3)           60.0002         0.264237   
     15. A(N   0,F   2,F   3)           35.2643         0.395558   
     16. A(F   1,F   3,F   2)           59.9997         0.264236   
     17. A(N   0,F   3,F   2)           35.2642         0.395557   
     18. A(N   0,F   3,F   1)           35.2644         0.395556   
     19. D(F   2,F   1,N   0,F   3)   -120.0000         0.521288   
     20. D(F   3,F   1,N   0,F   2)    120.0000         0.521288   
     21. D(F   1,F   2,N   0,F   3)    119.9999         0.521310   
     22. D(F   3,F   2,F   1,N   0)     35.2643         0.003643   
     23. D(F   3,F   2,N   0,F   1)   -119.9999         0.521310   
     24. D(N   0,F   2,F   1,F   3)    -35.2643         0.003643   
     25. D(F   1,F   3,N   0,F   2)   -119.9995         0.521287   
     26. D(F   1,F   3,F   2,N   0)     35.2647         0.003642   
     27. D(N   0,F   3,F   2,F   1)    -35.2647         0.003642   
     28. D(F   2,F   3,F   1,N   0)    -35.2645         0.003642   
     29. D(N   0,F   3,F   1,F   2)     35.2645         0.003642   
     30. D(F   2,F   3,N   0,F   1)    119.9995         0.521287   
    -----------------------------------------------------------------

Number of atoms                         .... 4
Number of degrees of freedom            .... 30

         *************************************************************
         *                GEOMETRY OPTIMIZATION CYCLE   1            *
         *************************************************************
---------------------------------
CARTESIAN COORDINATES (ANGSTROEM)
---------------------------------
  N     -1.458720    0.987640    0.000000
  F     -0.438720    0.987640    0.000000
  F     -1.798710    0.697180   -0.916750
  F     -1.798720    1.926800    0.206830

----------------------------
CARTESIAN COORDINATES (A.U.)
----------------------------
  NO LB      ZA    FRAG     MASS         X           Y           Z
   0 N     7.0000    0    14.007   -2.756581    1.866369    0.000000
   1 F     9.0000    0    18.998   -0.829061    1.866369    0.000000
   2 F     9.0000    0    18.998   -3.399069    1.317479   -1.732406
   3 F     9.0000    0    18.998   -3.399088    3.641124    0.390852

--------------------------------
INTERNAL COORDINATES (ANGSTROEM)
--------------------------------
 N      0   0   0     0.000000000000     0.00000000     0.00000000
 F      1   0   0     1.020000000000     0.00000000     0.00000000
 F      1   2   0     1.019995477539   109.47071465     0.00000000
 F      1   2   3     1.020000075735   109.47121913   239.99997253

---------------------------
INTERNAL COORDINATES (A.U.)
---------------------------
 N      0   0   0     0.000000000000     0.00000000     0.00000000
 F      1   0   0     1.927520656600     0.00000000     0.00000000
 F      1   2   0     1.927512110387   109.47071465     0.00000000
 F      1   2   3     1.927520799719   109.47121913   239.99997253

---------------------
BASIS SET INFORMATION
---------------------
There are 2 groups of distinct atoms

 Group   1 Type N   : 10s4p1d contracted to 3s2p1d pattern {631/31/1}
 Group   2 Type F   : 10s4p1d contracted to 3s2p1d pattern {631/31/1}

Atom   0N    basis set group =>   1
Atom   1F    basis set group =>   2
Atom   2F    basis set group =>   2
Atom   3F    basis set group =>   2

-------------------------
BASIS SET IN INPUT FORMAT
-------------------------

 # Basis set for element : N 
 NewGTO N 
 S 6 
   1    4173.5110000000      0.0018347994
   2     627.4579000000      0.0139949958
   3     142.9021000000      0.0685869792
   4      40.2343300000      0.2322409295
   5      12.8202100000      0.4690698576
   6       4.3904370000      0.3604548906
 S 3 
   1      11.6263580000     -0.1149610229
   2       2.7162800000     -0.1691180337
   3       0.7722180000      1.1458522281
 P 3 
   1      11.6263580000      0.0675800232
   2       2.7162800000      0.3239071114
   3       0.7722180000      0.7408952549
 S 1 
   1       0.2120313000      1.0000000000
 P 1 
   1       0.2120313000      1.0000000000
 D 1 
   1       0.8000000000      1.0000000000
  end;

 # Basis set for element : F 
 NewGTO F 
 S 6 
   1    7001.7130900000      0.0018196200
   2    1051.3660900000      0.0139160800
   3     239.2856900000      0.0684053199
   4      67.3974453000      0.2331857596
   5      21.5199573000      0.4712674391
   6       7.4031013000      0.3566185493
 S 3 
   1      20.8479528000     -0.1085069803
   2       4.8083083400     -0.1464516604
   3       1.3440698600      1.1286885835
 P 3 
   1      20.8479528000      0.0716287200
   2       4.8083083400      0.3459121001
   3       1.3440698600      0.7224699603
 S 1 
   1       0.3581513900      1.0000000000
 P 1 
   1       0.3581513900      1.0000000000
 D 1 
   1       0.8000000000      1.0000000000
  end;

------------------------------------------------------------------------------
                           ORCA GTO INTEGRAL CALCULATION
------------------------------------------------------------------------------
------------------------------------------------------------------------------
                   ___                                                        
                  /   \      - P O W E R E D   B Y -                         
                 /     \                                                     
                 |  |  |   _    _      __       _____    __    __             
                 |  |  |  | |  | |    /  \     |  _  \  |  |  /  |          
                  \  \/   | |  | |   /    \    | | | |  |  | /  /          
                 / \  \   | |__| |  /  /\  \   | |_| |  |  |/  /          
                |  |  |   |  __  | /  /__\  \  |    /   |      \           
                |  |  |   | |  | | |   __   |  |    \   |  |\   \          
                \     /   | |  | | |  |  |  |  | |\  \  |  | \   \       
                 \___/    |_|  |_| |__|  |__|  |_| \__\ |__|  \__/        
                                                                              
                      - O R C A' S   B I G   F R I E N D -                    
                                      &                                       
                       - I N T E G R A L  F E E D E R -                       
                                                                              
 v1 FN, 2020, v2 2021                                                         
------------------------------------------------------------------------------


Reading SHARK input file result.SHARKINP.tmp ... ok
----------------------
SHARK INTEGRAL PACKAGE
----------------------

Number of atoms                             ...      4
Number of basis functions                   ...     56
Number of shells                            ...     24
Maximum angular momentum                    ...      2
Integral batch strategy                     ... SHARK/LIBINT Hybrid
RI-J (if used) integral strategy            ... SPLIT-RIJ (Revised 2003 algorithm where possible)
Printlevel                                  ...      2
Contraction scheme used                     ... SEGMENTED contraction
Coulomb Range Separation                    ... NOT USED
Exchange Range Separation                   ... NOT USED
Finite Nucleus Model                        ... NOT USED
Auxiliary Coulomb fitting basis             ... NOT available
Auxiliary J/K fitting basis                 ... NOT available
Auxiliary Correlation fitting basis         ... NOT available
Auxiliary 'external' fitting basis          ... NOT available
Integral threshold                          ...     2.500000e-11
Primitive cut-off                           ...     2.500000e-12
Primitive pair pre-selection threshold      ...     2.500000e-12

Calculating pre-screening integrals         ... done (  0.0 sec) Dimension = 24
Organizing shell pair data                  ... done (  0.0 sec)
Shell pair information
Total number of shell pairs                 ...       300
Shell pairs after pre-screening             ...       297
Total number of primitive shell pairs       ...      1914
Primitive shell pairs kept                  ...      1512
          la=0 lb=0:     75 shell pairs
          la=1 lb=0:     96 shell pairs
          la=1 lb=1:     36 shell pairs
          la=2 lb=0:     48 shell pairs
          la=2 lb=1:     32 shell pairs
          la=2 lb=2:     10 shell pairs

Calculating one electron integrals          ... done (  0.0 sec)
Calculating Nuclear repulsion               ... done (  0.0 sec) ENN=    175.254704749731 Eh

SHARK setup successfully completed in   0.1 seconds

Maximum memory used throughout the entire GTOINT-calculation: 7.5 MB
-------------------------------------------------------------------------------
                                 ORCA SCF
-------------------------------------------------------------------------------

------------
SCF SETTINGS
------------
Hamiltonian:
 Ab initio Hamiltonian  Method          .... Hartree-Fock(GTOs)


General Settings:
 Integral files         IntName         .... result
 Hartree-Fock type      HFTyp           .... RHF
 Total Charge           Charge          ....    0
 Multiplicity           Mult            ....    1
 Number of Electrons    NEL             ....   34
 Basis Dimension        Dim             ....   56
 Nuclear Repulsion      ENuc            ....    175.2547047497 Eh

Convergence Acceleration:
 DIIS                   CNVDIIS         .... on
   Start iteration      DIISMaxIt       ....    12
   Startup error        DIISStart       ....  0.200000
   # of expansion vecs  DIISMaxEq       ....     5
   Bias factor          DIISBfac        ....   1.050
   Max. coefficient     DIISMaxC        ....  10.000
 Trust-Rad. Augm. Hess. CNVTRAH         .... auto
   Auto Start mean grad. ratio tolernc. ....  1.125000
   Auto Start start iteration           ....    20
   Auto Start num. interpolation iter.  ....    10
   Max. Number of Micro iterations      ....    16
   Max. Number of Macro iterations      .... Maxiter - #DIIS iter
   Number of Davidson start vectors     ....     2
   Converg. threshold I  (grad. norm)   ....   1.000e-05
   Converg. threshold II (energy diff.) ....   1.000e-08
   Grad. Scal. Fac. for Micro threshold ....   0.100
   Minimum threshold for Micro iter.    ....   0.010
   NR start threshold (gradient norm)   ....   0.001
   Initial trust radius                 ....   0.400
   Minimum AH scaling param. (alpha)    ....   1.000
   Maximum AH scaling param. (alpha)    .... 1000.000
   Orbital update algorithm             .... Taylor
   White noise on init. David. guess    .... on
   Maximum white noise                  ....   0.010
   Quad. conv. algorithm                .... NR
 SOSCF                  CNVSOSCF        .... on
   Start iteration      SOSCFMaxIt      ....   150
   Startup grad/error   SOSCFStart      ....  0.003300
 Level Shifting         CNVShift        .... on
   Level shift para.    LevelShift      ....    0.2500
   Turn off err/grad.   ShiftErr        ....    0.0010
 Zerner damping         CNVZerner       .... off
 Static damping         CNVDamp         .... on
   Fraction old density DampFac         ....    0.7000
   Max. Damping (<1)    DampMax         ....    0.9800
   Min. Damping (>=0)   DampMin         ....    0.0000
   Turn off err/grad.   DampErr         ....    0.1000
 Fernandez-Rico         CNVRico         .... off

SCF Procedure:
 Maximum # iterations   MaxIter         ....   125
 SCF integral mode      SCFMode         .... Direct
   Integral package                     .... SHARK and LIBINT hybrid scheme
 Reset frequency        DirectResetFreq ....    20
 Integral Threshold     Thresh          ....  2.500e-11 Eh
 Primitive CutOff       TCut            ....  2.500e-12 Eh

Convergence Tolerance:
 Convergence Check Mode ConvCheckMode   .... Total+1el-Energy
 Convergence forced     ConvForced      .... 0
 Energy Change          TolE            ....  1.000e-08 Eh
 1-El. energy change                    ....  1.000e-05 Eh
 Orbital Gradient       TolG            ....  1.000e-05
 Orbital Rotation angle TolX            ....  1.000e-05
 DIIS Error             TolErr          ....  5.000e-07


Diagonalization of the overlap matrix:
Smallest eigenvalue                        ... 5.493e-03
Time for diagonalization                   ...    0.001 sec
Threshold for overlap eigenvalues          ... 1.000e-08
Number of eigenvalues below threshold      ... 0
Time for construction of square roots      ...    0.005 sec
Total time needed                          ...    0.006 sec

----------------------
SHARK INTEGRAL PACKAGE
----------------------

Number of atoms                             ...      4
Number of basis functions                   ...     56
Number of shells                            ...     24
Maximum angular momentum                    ...      2
Integral batch strategy                     ... SHARK/LIBINT Hybrid
RI-J (if used) integral strategy            ... SPLIT-RIJ (Revised 2003 algorithm where possible)
Printlevel                                  ...      2
Contraction scheme used                     ... SEGMENTED contraction
Coulomb Range Separation                    ... NOT USED
Exchange Range Separation                   ... NOT USED
Finite Nucleus Model                        ... NOT USED
Auxiliary Coulomb fitting basis             ... NOT available
Auxiliary J/K fitting basis                 ... NOT available
Auxiliary Correlation fitting basis         ... NOT available
Auxiliary 'external' fitting basis          ... NOT available
Integral threshold                          ...     2.500000e-11
Primitive cut-off                           ...     2.500000e-12
Primitive pair pre-selection threshold      ...     2.500000e-12

Time for model grid setup =    0.036 sec

------------------------------
INITIAL GUESS: MODEL POTENTIAL
------------------------------
Loading Hartree-Fock densities                     ... done
Calculating cut-offs                               ... done
Initializing the effective Hamiltonian             ... done
Setting up the integral package (SHARK)            ... done
Starting the Coulomb interaction                   ...     -> Generating integrals - 
    -> L=0 0 :     0.001 sec done=      3300 skipped=         0 prim-skipped=         0
    -> L=1 0 :     0.002 sec done=      4224 skipped=         0 prim-skipped=         0
    -> L=1 1 :     0.001 sec done=      1584 skipped=         0 prim-skipped=         0
    -> L=2 0 :     0.001 sec done=      2112 skipped=         0 prim-skipped=         0
    -> L=2 1 :     0.001 sec done=      1408 skipped=         0 prim-skipped=         0
    -> L=2 2 :     0.000 sec done=       440 skipped=         0 prim-skipped=         0
done (   0.0 sec)
Reading the grid                                   ... done
Mapping shells                                     ... done
Starting the XC term evaluation                    ... done (   0.0 sec)
Transforming the Hamiltonian                       ... done (   0.0 sec)
Diagonalizing the Hamiltonian                      ... done (   0.0 sec)
Back transforming the eigenvectors                 ... done (   0.0 sec)
Now organizing SCF variables                       ... done
                      ------------------
                      INITIAL GUESS DONE (   0.1 sec)
                      ------------------
----------------------
INITIAL GUESS ORBITALS
----------------------
                      0         1         2         3         4         5   
                 -24.26605 -24.26604 -24.26602 -14.13760  -1.64025  -1.36579
                   2.00000   2.00000   2.00000   2.00000   2.00000   2.00000
                  --------  --------  --------  --------  --------  --------
  0N   1s         0.000025 -0.000156 -0.000396  0.994536  0.163635 -0.000000
  0N   2s        -0.000025  0.000159  0.000401  0.050150 -0.312667  0.000036
  0N   1pz       -0.000229  0.000225  0.000167 -0.004126  0.089406  0.027266
  0N   1px       -0.000272 -0.000235 -0.000054  0.001976 -0.042816  0.318118
  0N   1py       -0.000075  0.000161 -0.000316  0.003770 -0.081692 -0.136896
  0N   3s         0.001740 -0.011101 -0.028071  0.010950  0.018114 -0.000117
  0N   2pz       -0.004718  0.005344  0.005431 -0.002000 -0.020208  0.001184
  0N   2px       -0.005393 -0.005095 -0.002073  0.000958  0.009691  0.013156
  0N   2py       -0.001391  0.002483 -0.008230  0.001827  0.018468 -0.005698
  0N   1dz2      -0.001504  0.000542 -0.000435 -0.000895  0.002909 -0.012973
  0N   1dxz      -0.000684  0.000319  0.000057  0.001588 -0.005160 -0.012185
  0N   1dyz      -0.000424  0.000042  0.000388  0.003029 -0.009839 -0.004916
  0N   1dx2y2     0.000775  0.001516 -0.000409  0.001004 -0.003263  0.047397
  0N   1dxy      -0.000087  0.000629 -0.000460 -0.001451  0.004718  0.017183
  1F   1s        -0.627902 -0.661568 -0.395567  0.000071  0.102985 -0.169950
  1F   2s        -0.022372 -0.023392 -0.013689  0.000810 -0.210346  0.359341
  1F   1pz        0.000014  0.000094  0.000145 -0.000075  0.010519  0.001429
  1F   1px        0.001927  0.001761  0.000607  0.001952  0.127310 -0.148175
  1F   1py       -0.000029 -0.000065 -0.000142  0.000068 -0.009612 -0.019619
  1F   3s         0.014194  0.017360  0.014364 -0.011669 -0.185758  0.285578
  1F   2pz        0.000296 -0.000685 -0.001260 -0.000371  0.007233  0.001775
  1F   2px       -0.004785 -0.005187 -0.003342  0.008032  0.043802 -0.026466
  1F   2py        0.000037  0.000229  0.001327  0.000339 -0.006609 -0.008426
  1F   1dz2       0.000066 -0.000925  0.000383  0.001804  0.006079 -0.003364
  1F   1dxz       0.000302 -0.000156  0.000157  0.000553 -0.001512 -0.001893
  1F   1dyz       0.000350 -0.000053 -0.000461 -0.000060  0.000400  0.000671
  1F   1dx2y2     0.000973  0.000126  0.000078 -0.003114 -0.010605  0.004982
  1F   1dxy       0.000121 -0.000371  0.000084 -0.000506  0.001382  0.004028
  2F   1s         0.769648 -0.509887 -0.368869  0.000071  0.102990  0.048906
  2F   2s         0.027367 -0.017992 -0.012738  0.000810 -0.210359 -0.103421
  2F   1pz        0.002026 -0.001127 -0.000390 -0.001797 -0.108434 -0.046827
  2F   1px        0.000782 -0.000498 -0.000265 -0.000603 -0.049150  0.032263
  2F   1py        0.000701 -0.000441 -0.000309 -0.000477 -0.047302 -0.039713
  2F   3s        -0.018116  0.013852  0.013746 -0.011669 -0.185755 -0.082097
  2F   2pz       -0.005321  0.003291  0.002066 -0.007430 -0.035252 -0.010198
  2F   2px       -0.001846  0.001936  0.001808 -0.002441 -0.019237  0.014973
  2F   2py       -0.001791  0.001483  0.002381 -0.001898 -0.020077 -0.012020
  2F   1dz2      -0.000494  0.000222 -0.000079 -0.003044 -0.007422 -0.003438
  2F   1dxz      -0.000527  0.000264 -0.000130 -0.001661 -0.006892  0.004743
  2F   1dyz      -0.000553  0.000326 -0.000281 -0.001187 -0.006442 -0.004081
  2F   1dx2y2    -0.000544 -0.000898  0.000132 -0.000163 -0.000043  0.001578
  2F   1dxy      -0.000148 -0.000186  0.000531 -0.000248 -0.003162  0.000124
  3F   1s        -0.042589  0.539226 -0.834163  0.000071  0.102990  0.121030
  3F   2s        -0.001540  0.019345 -0.029298  0.000810 -0.210338 -0.255904
  3F   1pz        0.000015 -0.000348  0.000577  0.000314  0.037353  0.035734
  3F   1px       -0.000068  0.000600 -0.000752 -0.000603 -0.049152  0.003121
  3F   1py        0.000151 -0.001720  0.001694  0.001833  0.112247  0.107864
  3F   3s         0.000661 -0.010403  0.024505 -0.011669 -0.185797 -0.203321
  3F   2pz        0.000251  0.000180 -0.002789  0.001222  0.016853  0.008171
  3F   2px        0.000364 -0.000919  0.003074 -0.002441 -0.019230  0.008524
  3F   2py       -0.000256  0.003973 -0.005547  0.007571  0.036934  0.021756
  3F   1dz2       0.000804  0.000600 -0.000026  0.001809  0.004645  0.002704
  3F   1dxz       0.000421 -0.000204 -0.000357  0.000097  0.002524 -0.000464
  3F   1dyz       0.000282 -0.000539  0.000126 -0.000681 -0.005197 -0.002447
  3F   1dx2y2    -0.000574  0.000327 -0.000284  0.002639  0.006934  0.005877
  3F   1dxy      -0.000064  0.000532 -0.000264  0.001677  0.007145 -0.002619
                      6         7         8         9        10        11   
                  -1.36577  -0.76418  -0.74890  -0.72330  -0.72326  -0.54449
                   2.00000   2.00000   2.00000   2.00000   2.00000   2.00000
                  --------  --------  --------  --------  --------  --------
  0N   1s         0.000001 -0.096431  0.070599  0.000002 -0.000022 -0.000000
  0N   2s         0.000001  0.238683 -0.149151 -0.000038  0.000013 -0.000048
  0N   1pz       -0.247966 -0.090328 -0.266269 -0.062365 -0.230447 -0.033392
  0N   1px       -0.077951  0.043220  0.127455 -0.312464 -0.026758  0.068614
  0N   1py       -0.230507  0.082540  0.243185  0.095370 -0.238349 -0.072566
  0N   3s         0.000026 -0.013474 -0.094231 -0.000014  0.000093  0.000111
  0N   2pz       -0.010287  0.011343 -0.085759 -0.008348 -0.031019  0.007365
  0N   2px       -0.003216 -0.005446  0.040997 -0.041981 -0.003636 -0.015133
  0N   2py       -0.009560 -0.010342  0.078338  0.012850 -0.032025  0.016110
  0N   1dz2       0.047853  0.002588  0.009883  0.000369  0.013421 -0.010968
  0N   1dxz       0.016022 -0.004586 -0.017511  0.016723 -0.012446  0.054972
  0N   1dyz       0.005866 -0.008762 -0.033424 -0.014607  0.000151 -0.030858
  0N   1dx2y2     0.014179 -0.002899 -0.011068 -0.000648  0.007681  0.024712
  0N   1dxy       0.010062  0.004189  0.015997 -0.012904 -0.016307  0.019611
  1F   1s         0.041642  0.085211 -0.009157 -0.098827 -0.008451 -0.000149
  1F   2s        -0.088052 -0.192255  0.023411  0.216923  0.018553  0.004894
  1F   1pz       -0.039807 -0.040630 -0.206099 -0.005619 -0.144965  0.354967
  1F   1px        0.036307 -0.276678  0.039971  0.376746  0.032218 -0.153292
  1F   1py       -0.038375  0.037121  0.188259  0.029781 -0.155686  0.092102
  1F   3s        -0.069967 -0.235692  0.013069  0.343777  0.029391 -0.013741
  1F   2pz       -0.015104 -0.020924 -0.100204 -0.004786 -0.072630  0.209939
  1F   2px        0.006475 -0.141147  0.028833  0.156945  0.013431 -0.075739
  1F   2py       -0.013977  0.019116  0.091517  0.016680 -0.077693  0.054863
  1F   1dz2      -0.000517 -0.008199  0.003032  0.004321  0.000077 -0.006425
  1F   1dxz       0.005427  0.002672  0.015013  0.003959  0.010943 -0.012598
  1F   1dyz      -0.000304 -0.001251  0.000260 -0.001386 -0.000150 -0.002949
  1F   1dx2y2    -0.001992  0.014430 -0.005296 -0.007182 -0.000783  0.002163
  1F   1dxy       0.004441 -0.002441 -0.013707 -0.005423  0.011151 -0.002422
  2F   1s        -0.167998  0.085236 -0.009102  0.042075  0.089805 -0.000067
  2F   2s         0.355271 -0.192325  0.023267 -0.092365 -0.197136  0.002001
  2F   1pz        0.135615  0.225560 -0.153107  0.172538  0.305774  0.140624
  2F   1px        0.055131  0.118145  0.118307 -0.109293  0.177631 -0.350963
  2F   1py        0.021814  0.121530  0.205064  0.146633  0.029268  0.185175
  2F   3s         0.282144 -0.235753  0.012887 -0.146330 -0.312407 -0.005561
  2F   2pz        0.025629  0.114974 -0.082901  0.074738  0.128292  0.077736
  2F   2px        0.010260  0.060420  0.054442 -0.059624  0.078154 -0.209862
  2F   2py       -0.001294  0.062204  0.097061  0.068591  0.004656  0.108054
  2F   1dz2       0.006365  0.009614 -0.017686  0.007062  0.007868  0.005715
  2F   1dxz       0.003542  0.009517  0.002637 -0.008829  0.007039 -0.006840
  2F   1dyz      -0.000605  0.008955  0.009138  0.007926 -0.003182  0.005226
  2F   1dx2y2     0.001194 -0.000258 -0.001351 -0.005398  0.003785 -0.011198
  2F   1dxy      -0.001251  0.005192  0.006778 -0.001528 -0.001899 -0.002962
  3F   1s         0.126358  0.085239 -0.009147  0.056719 -0.081344  0.000212
  3F   2s        -0.267204 -0.192326  0.023345 -0.124522  0.178547 -0.006904
  3F   1pz       -0.007892 -0.100742 -0.218039 -0.128890 -0.020432 -0.239335
  3F   1px       -0.063799  0.118141  0.118241 -0.077531 -0.193660 -0.021797
  3F   1py        0.098294 -0.235597  0.134221 -0.234509  0.271228  0.278839
  3F   3s        -0.212229 -0.235776  0.013094 -0.197268  0.282943  0.019240
  3F   2pz       -0.008291 -0.051637 -0.104170 -0.059574 -0.017187 -0.145563
  3F   2px       -0.016023  0.060405  0.054427 -0.045507 -0.087143 -0.006180
  3F   2py        0.017344 -0.120102  0.073875 -0.101219  0.112581  0.145429
  3F   1dz2       0.003140 -0.005860  0.008383 -0.001154  0.006489  0.006962
  3F   1dxz      -0.001528 -0.004318 -0.006514  0.001153 -0.002351  0.000437
  3F   1dyz       0.003172  0.007347  0.011870  0.006303  0.005838  0.008071
  3F   1dx2y2     0.002366 -0.009193  0.013695 -0.010143  0.002877  0.008687
  3F   1dxy       0.005222 -0.009945 -0.003238  0.007646  0.008246  0.002074
                     12        13        14        15        16        17   
                  -0.54447  -0.45775  -0.45774  -0.39992  -0.17454   0.34613
                   2.00000   2.00000   2.00000   2.00000   2.00000   0.00000
                  --------  --------  --------  --------  --------  --------
  0N   1s         0.000009  0.000013  0.000000  0.000004  0.075063  0.000011
  0N   2s        -0.000086  0.000038 -0.000003  0.000052 -0.147177 -0.000165
  0N   1pz        0.067823 -0.015917  0.030676  0.000016 -0.388642  0.269836
  0N   1px        0.071756  0.030713  0.033422 -0.000011  0.186091  0.069904
  0N   1py        0.036586 -0.033450  0.016036  0.000037  0.355109  0.259354
  0N   3s        -0.000028 -0.000428 -0.000070 -0.000280 -0.939078  0.004359
  0N   2pz       -0.015020  0.028903 -0.055423  0.000195 -0.138062  1.666660
  0N   2px       -0.015893 -0.055320 -0.060266 -0.000017  0.065863  0.430956
  0N   2py       -0.008024  0.060329 -0.029111  0.000042  0.126003  1.600023
  0N   1dz2      -0.011588  0.015794 -0.042343  0.000003 -0.004188  0.009511
  0N   1dxz      -0.012144 -0.007324 -0.017416 -0.000003  0.007448  0.009828
  0N   1dyz      -0.032281  0.002588 -0.003397  0.000002  0.014205  0.002601
  0N   1dx2y2     0.025770  0.041231  0.010507 -0.000002  0.004687  0.001950
  0N   1dxy      -0.055690  0.016153  0.007237  0.000009 -0.006805  0.011427
  1F   1s        -0.000161 -0.009200 -0.010013 -0.000002 -0.024772  0.015947
  1F   2s         0.005113  0.020897  0.022770 -0.000007  0.053494 -0.024879
  1F   1pz       -0.044135 -0.131063 -0.388895 -0.300752  0.203346 -0.173616
  1F   1px       -0.160281 -0.132639 -0.144350  0.000009 -0.092450  0.023634
  1F   1py       -0.358075  0.366103  0.129055 -0.329153 -0.185785 -0.143220
  1F   3s        -0.014257  0.051016  0.055402  0.000107  0.258845 -0.319966
  1F   2pz       -0.026516 -0.083070 -0.233910 -0.188465  0.162265 -0.333646
  1F   2px       -0.079224 -0.083194 -0.090472 -0.000029 -0.126198  0.118598
  1F   2py       -0.211809  0.219520  0.081832 -0.206228 -0.148236 -0.317194
  1F   1dz2       0.001449 -0.000302 -0.005943 -0.003188 -0.004705  0.034644
  1F   1dxz       0.000732  0.005558  0.014786  0.010399  0.010103 -0.000362
  1F   1dyz      -0.002232 -0.001184 -0.001873 -0.000335  0.005908  0.001832
  1F   1dx2y2     0.006978  0.007252  0.004642 -0.001839  0.007081  0.014407
  1F   1dxy       0.012671 -0.013830 -0.005474  0.011377 -0.009236  0.004891
  2F   1s         0.000206 -0.004083  0.012976 -0.000011 -0.024764 -0.077335
  2F   2s        -0.006807  0.009261 -0.029508  0.000014  0.053549  0.120813
  2F   1pz       -0.293255  0.018040  0.044914  0.055347  0.198895  0.159469
  2F   1px       -0.037492 -0.101124 -0.351224 -0.364044 -0.099001  0.025491
  2F   1py        0.221696  0.267567 -0.387350  0.251431 -0.187218 -0.128159
  2F   3s         0.019047  0.022797 -0.071819  0.000206  0.258456  1.549479
  2F   2pz       -0.154655  0.011184  0.024158  0.034680  0.205716  0.563714
  2F   2px       -0.015536 -0.056213 -0.213503 -0.228012 -0.061571  0.239537
  2F   2py        0.136773  0.159798 -0.237894  0.157436 -0.134491 -0.044583
  2F   1dz2      -0.011868  0.000215  0.006272  0.003304 -0.003756  0.004844
  2F   1dxz      -0.002327 -0.004395 -0.012222 -0.012143  0.008849  0.013562
  2F   1dyz       0.006298  0.009550 -0.012484  0.008844  0.014004  0.024444
  2F   1dx2y2    -0.002813 -0.000700  0.001665 -0.003615  0.001509  0.012720
  2F   1dxy      -0.000752  0.004517 -0.010280  0.000670  0.001863  0.009137
  3F   1s        -0.000059  0.013265 -0.002966  0.000004 -0.024770  0.061564
  3F   2s         0.001660 -0.030167  0.006718 -0.000004  0.053545 -0.096025
  3F   1pz       -0.182598  0.410782 -0.230899  0.245431  0.204304 -0.163036
  3F   1px       -0.352279 -0.341397 -0.130398  0.364063 -0.099000 -0.094987
  3F   1py       -0.144445 -0.006282 -0.042672  0.077707 -0.181258  0.100960
  3F   3s        -0.004636 -0.073281  0.016527  0.000004  0.258603 -1.234521
  3F   2pz       -0.107263  0.251578 -0.137300  0.153656  0.152449 -0.178803
  3F   2px       -0.210329 -0.207992 -0.074028  0.228072 -0.061529 -0.344991
  3F   2py       -0.080803 -0.000485 -0.025630  0.048680 -0.192797  0.411233
  3F   1dz2       0.006339 -0.002447 -0.001210 -0.000114 -0.001640  0.025745
  3F   1dxz       0.002368  0.009522 -0.004091  0.001749 -0.001057  0.012350
  3F   1dyz       0.005641 -0.014151  0.008252 -0.008515  0.014216 -0.017646
  3F   1dx2y2    -0.010653 -0.003299 -0.001681  0.005461  0.002735 -0.005473
  3F   1dxy       0.007173  0.012732  0.005052 -0.012032 -0.008986  0.006844
                     18        19        20        21        22        23   
                   0.34623   0.38035   0.47235   0.54894   0.54900   0.67825
                   0.00000   0.00000   0.00000   0.00000   0.00000   0.00000
                  --------  --------  --------  --------  --------  --------
  0N   1s         0.000055 -0.002589 -0.002929 -0.000015  0.000031  0.174614
  0N   2s         0.000285 -0.145088  0.167896 -0.000011  0.000117 -1.038144
  0N   1pz        0.042070 -0.171077  0.538429  0.592593 -0.062148  0.113083
  0N   1px        0.352526  0.083094 -0.256712  0.189655 -0.759436 -0.054104
  0N   1py       -0.138700  0.155459 -0.491791  0.549592  0.329163 -0.103279
  0N   3s        -0.013069  5.330690 -0.350849  0.000762  0.001121  0.062169
  0N   2pz        0.263523 -1.419206 -0.936079 -0.875053  0.091538  0.337456
  0N   2px        2.170706  0.683929  0.448889 -0.280043  1.122578 -0.161977
  0N   2py       -0.859326  1.293670  0.855516 -0.811067 -0.485953 -0.308420
  0N   1dz2       0.005540 -0.021046 -0.007380  0.186262 -0.067512 -0.041845
  0N   1dxz      -0.003903  0.037275  0.013372  0.109948  0.003789  0.074221
  0N   1dyz       0.008106  0.071160  0.025556  0.035678 -0.072175  0.141597
  0N   1dx2y2    -0.014894  0.023556  0.008275  0.042236  0.222594  0.046902
  0N   1dxy      -0.000571 -0.034112 -0.012182  0.109147  0.048813 -0.067800
  1F   1s         0.080032  0.075675 -0.017465  0.006186 -0.024665 -0.044472
  1F   2s        -0.125229 -0.077137  0.091281 -0.036205  0.144685  0.146607
  1F   1pz       -0.088441  0.114297  0.027981  0.023624 -0.004065 -0.048233
  1F   1px        0.119790 -0.063030 -0.085528  0.089872 -0.359931 -0.287582
  1F   1py        0.140551 -0.104078 -0.025580  0.021098  0.014351  0.044091
  1F   3s        -1.601426 -2.081651 -0.127659  0.164342 -0.660092  0.163321
  1F   2pz       -0.060628  0.227203  0.136574  0.009306 -0.018729 -0.106577
  1F   2px        0.593236  0.865393 -0.089280 -0.014954  0.060848 -0.178393
  1F   2py        0.178722 -0.206942 -0.124898  0.000220  0.019418  0.097359
  1F   1dz2       0.006127  0.054823 -0.003942 -0.001915  0.078367  0.080917
  1F   1dxz      -0.013797  0.003619 -0.081319 -0.071370  0.004135 -0.004956
  1F   1dyz      -0.008292 -0.011557  0.024101  0.004388 -0.010210  0.035931
  1F   1dx2y2    -0.023938 -0.092971  0.002498  0.041168 -0.124267 -0.146649
  1F   1dxy       0.011687 -0.003258  0.074296 -0.067770 -0.036996  0.004524
  2F   1s        -0.026519  0.075467 -0.017616 -0.024467  0.007003 -0.044456
  2F   2s         0.041219 -0.076915  0.091767  0.143371 -0.041021  0.146489
  2F   1pz        0.083817  0.122146  0.093530  0.316215 -0.086137  0.231046
  2F   1px       -0.187105 -0.052600  0.010537  0.117403 -0.061431  0.126784
  2F   1py        0.092023 -0.101862 -0.005060  0.116445 -0.014204  0.132675
  2F   3s         0.533171 -2.077627 -0.126815 -0.653030  0.186690  0.163119
  2F   2pz        0.254861 -0.646608  0.158761 -0.064903  0.019396  0.099534
  2F   2px       -0.320927 -0.433434 -0.057290 -0.008769 -0.003251  0.127424
  2F   2py        0.265128 -0.483772 -0.117650  0.004451  0.002446  0.162584
  2F   1dz2      -0.001183 -0.078411  0.071453 -0.114355  0.054973 -0.119865
  2F   1dxz       0.018387 -0.055549 -0.026712 -0.090057 -0.055406 -0.085335
  2F   1dyz       0.004794 -0.049571 -0.052208 -0.036707  0.070429 -0.063856
  2F   1dx2y2    -0.030240 -0.007363  0.015904 -0.016944 -0.023748  0.009208
  2F   1dxy      -0.011752 -0.006162 -0.062516 -0.003434  0.003832 -0.060016
  3F   1s        -0.054042  0.075292 -0.017589  0.018341  0.017679 -0.044459
  3F   2s         0.084328 -0.076639  0.091640 -0.107378 -0.103568  0.146573
  3F   1pz       -0.023794  0.113047  0.013492  0.074187  0.046763 -0.111388
  3F   1px       -0.163290 -0.052330  0.010494 -0.074902 -0.109423  0.126748
  3F   1py       -0.141003 -0.112926 -0.092607  0.246278  0.229747 -0.242008
  3F   3s         1.084289 -2.074546 -0.126884  0.488068  0.471614  0.163035
  3F   2pz       -0.186698  0.423535  0.131333  0.009591  0.004356 -0.152884
  3F   2px       -0.205090 -0.432835 -0.057331  0.009177  0.001215  0.127479
  3F   2py       -0.469341  0.686288 -0.147446 -0.047263 -0.047329 -0.113734
  3F   1dz2       0.017321  0.052303 -0.040416 -0.058939 -0.051037  0.060451
  3F   1dxz       0.009327  0.001069  0.059854  0.008240 -0.005535  0.052064
  3F   1dyz       0.015413 -0.035775 -0.063856 -0.014684  0.063402 -0.045064
  3F   1dx2y2    -0.013493  0.068078 -0.048708 -0.051258 -0.101466  0.113304
  3F   1dxy      -0.021446  0.055924  0.032198 -0.105230  0.006098  0.090389
                     24        25        26        27        28        29   
                   0.95257   0.95264   1.00658   1.00668   1.01651   1.13915
                   0.00000   0.00000   0.00000   0.00000   0.00000   0.00000
                  --------  --------  --------  --------  --------  --------
  0N   1s        -0.000024  0.000033  0.000736 -0.000196  0.049843  0.063832
  0N   2s        -0.000134  0.000343  0.007891 -0.002108  0.523225  0.419481
  0N   1pz       -0.288848  0.064032 -0.023583  0.094528 -0.086750 -0.055629
  0N   1px       -0.050902  0.385333 -0.125078  0.014675  0.043343  0.026527
  0N   1py       -0.289458 -0.131787  0.042556  0.094980  0.079606  0.050847
  0N   3s        -0.000199  0.000143  0.012138 -0.003133  0.864235 -0.243768
  0N   2pz        0.172270 -0.037846 -0.083219  0.337552 -0.281267  0.850860
  0N   2px        0.030788 -0.228398 -0.449535  0.052950  0.142264 -0.406952
  0N   2py        0.172471  0.078287  0.153027  0.339242  0.258360 -0.778398
  0N   1dz2       0.153445 -0.104223  0.032416 -0.179551 -0.041138 -0.044659
  0N   1dxz       0.175388  0.059403  0.150171  0.060084  0.069052  0.079158
  0N   1dyz       0.034139 -0.147544 -0.093921 -0.007408  0.136829  0.151201
  0N   1dx2y2     0.047681  0.249383 -0.086881 -0.091365  0.045581  0.049994
  0N   1dxy       0.201604 -0.006379 -0.118688  0.099626 -0.062758 -0.072278
  1F   1s        -0.006938  0.052612 -0.023492  0.002745  0.018436 -0.016450
  1F   2s         0.032217 -0.244453  0.104921 -0.012317 -0.089255  0.182971
  1F   1pz        0.126574  0.241647  0.275416  0.313914 -0.229472  0.268549
  1F   1px        0.049208 -0.373327  0.337535 -0.039207 -0.354088 -0.232681
  1F   1py        0.197579 -0.179301 -0.170192  0.398542  0.211224 -0.245547
  1F   3s         0.033249 -0.253436  0.351401 -0.040869 -0.284554  0.036582
  1F   2pz       -0.325439 -0.251616 -0.390704 -0.353935  0.235658 -0.591395
  1F   2px       -0.150087  1.137338 -0.679213  0.078907  0.658556  0.368418
  1F   2py       -0.411090  0.136129  0.262694 -0.468248 -0.217146  0.540713
  1F   1dz2       0.079554  0.027507  0.006809  0.026576 -0.029268 -0.017692
  1F   1dxz       0.047637  0.018323 -0.006429  0.030401 -0.033857 -0.024080
  1F   1dyz       0.001929  0.050774  0.072268 -0.005966  0.124368 -0.101714
  1F   1dx2y2     0.052204 -0.031590 -0.017208  0.017737  0.028342  0.049033
  1F   1dxy       0.055283 -0.003671  0.012857  0.030736  0.031042  0.021940
  2F   1s         0.049023 -0.020288  0.009730 -0.022111  0.017932 -0.016440
  2F   2s        -0.228032  0.094361 -0.043600  0.098974 -0.087033  0.183084
  2F   1pz        0.440644 -0.151031  0.129678 -0.135657  0.182804  0.361901
  2F   1px       -0.088667 -0.169060 -0.273172 -0.411164  0.263643 -0.093407
  2F   1py       -0.067732  0.169873  0.406512 -0.209368  0.330897 -0.216119
  2F   3s        -0.234930  0.097592 -0.145185  0.329767 -0.276575  0.036382
  2F   2pz       -1.085454  0.378235 -0.241951  0.363830 -0.447597 -0.667947
  2F   2px       -0.066244  0.493138  0.257651  0.608203 -0.365890  0.253875
  2F   2py       -0.214020 -0.232741 -0.533393  0.389605 -0.418649  0.516674
  2F   1dz2      -0.045804  0.012966  0.001354 -0.015988  0.040155  0.072080
  2F   1dxz      -0.006473  0.016070  0.018749  0.000706  0.018953  0.007478
  2F   1dyz       0.000006 -0.028389 -0.021834  0.003566  0.040693 -0.036480
  2F   1dx2y2     0.057131  0.095825  0.031574  0.041427  0.049491 -0.033688
  2F   1dxy      -0.024356  0.051512  0.037296 -0.055556 -0.116696  0.079812
  3F   1s        -0.042076 -0.032330  0.014548  0.019151  0.018001 -0.016453
  3F   2s         0.195658  0.150229 -0.064990 -0.085569 -0.087108  0.183093
  3F   1pz       -0.055149 -0.204244 -0.428427 -0.097441 -0.314081  0.247288
  3F   1px        0.129887 -0.139890 -0.169387  0.462508  0.265392 -0.093585
  3F   1py        0.383171  0.243058 -0.196440 -0.110190 -0.212302 -0.340786
  3F   3s         0.201977  0.155574 -0.218134 -0.285912 -0.278289  0.036995
  3F   2pz       -0.181557  0.226525  0.578484  0.224472  0.378541 -0.573757
  3F   2px       -0.064625  0.493011  0.108425 -0.650195 -0.368397  0.254153
  3F   2py       -0.970733 -0.629811  0.372242  0.317214  0.484929  0.618419
  3F   1dz2       0.047754 -0.074374 -0.017112  0.033479 -0.068419 -0.000499
  3F   1dxz      -0.009777 -0.054094 -0.047401 -0.046155  0.117629 -0.078834
  3F   1dyz       0.008212 -0.037775 -0.024573  0.003432  0.029359 -0.044082
  3F   1dx2y2    -0.076152  0.020739  0.008316 -0.037243 -0.013355 -0.075576
  3F   1dxy      -0.002919 -0.022216 -0.022507  0.001016 -0.008419 -0.014671
                     30        31        32        33        34        35   
                   1.22445   1.22984   1.23002   1.31960   1.31967   1.35403
                   0.00000   0.00000   0.00000   0.00000   0.00000   0.00000
                  --------  --------  --------  --------  --------  --------
  0N   1s         0.000039 -0.000028 -0.000038 -0.000126 -0.000063 -0.053315
  0N   2s        -0.000098 -0.000094 -0.000085  0.000169  0.000144  0.067664
  0N   1pz        0.002190 -0.022791  0.126727  0.041773  0.148152 -0.151628
  0N   1px       -0.000321 -0.167045  0.028691  0.201995  0.014939  0.071942
  0N   1py        0.002453  0.062294  0.123683 -0.059284  0.154670  0.138259
  0N   3s         0.001126  0.000161 -0.000325 -0.001762 -0.001132 -0.458312
  0N   2pz       -0.013441  0.141494 -0.784236 -0.038591 -0.139993  0.407111
  0N   2px        0.002503  1.031784 -0.177522 -0.191697 -0.014560 -0.193518
  0N   2py       -0.015220 -0.384383 -0.765123  0.055125 -0.147069 -0.370991
  0N   1dz2      -0.002869  0.037925 -0.170174 -0.010953  0.120733 -0.064649
  0N   1dxz       0.000647  0.102546  0.004905  0.183134 -0.159951  0.114067
  0N   1dyz      -0.000440 -0.043603 -0.009509 -0.176089 -0.000003  0.218652
  0N   1dx2y2    -0.002066 -0.121551 -0.073501  0.029933  0.072561  0.072197
  0N   1dxy       0.000146 -0.086228  0.039822 -0.141877 -0.200242 -0.103925
  1F   1s        -0.000021  0.002471 -0.000400 -0.021149 -0.001529  0.021419
  1F   2s         0.000198 -0.061679  0.010324  0.338439  0.024585 -0.240891
  1F   1pz       -0.332577  0.287841 -0.342129 -0.106509 -0.023223  0.113517
  1F   1px       -0.000314 -0.078022  0.013628 -0.009010 -0.000412  0.220212
  1F   1py       -0.365154 -0.359861 -0.258254  0.099591 -0.009706 -0.103957
  1F   3s        -0.001198 -0.257112  0.044524 -0.401244 -0.028942  0.318016
  1F   2pz        0.547880 -0.572802  0.637934  0.037391  0.220342 -0.258669
  1F   2px       -0.000083 -0.112863  0.019189  0.205595  0.014969 -0.164311
  1F   2py        0.602208  0.702279  0.468988 -0.066040  0.233563  0.236263
  1F   1dz2       0.041786  0.009369 -0.000796 -0.082939  0.305992 -0.027464
  1F   1dxz       0.088376 -0.152118 -0.003680 -0.163718  0.228542 -0.054009
  1F   1dyz       0.003827 -0.119571  0.020768 -0.088715  0.026497  0.413737
  1F   1dx2y2     0.024237  0.005603 -0.000572  0.106711  0.188025 -0.028044
  1F   1dxy       0.097479  0.128652 -0.055106  0.114311  0.271526  0.049000
  2F   1s         0.000003 -0.000832  0.002350  0.009290  0.019160  0.021311
  2F   2s        -0.000648  0.021185 -0.058439 -0.148546 -0.306519 -0.239470
  2F   1pz        0.063692 -0.143147  0.229257  0.025453  0.046563 -0.133617
  2F   1px       -0.395483  0.402766 -0.049357 -0.048429 -0.057448 -0.145639
  2F   1py        0.266248 -0.116085 -0.404827 -0.039784 -0.110851 -0.181015
  2F   3s        -0.004236  0.090523 -0.245168  0.176660  0.363940  0.317190
  2F   2pz       -0.102180  0.191281 -0.226669  0.031321  0.156620  0.000196
  2F   2px        0.652109 -0.780234  0.200117  0.282021 -0.020325  0.219082
  2F   2py       -0.434659  0.171426  0.856832 -0.111626  0.184177  0.317398
  2F   1dz2       0.023599 -0.044376  0.142872 -0.070875 -0.229589 -0.016804
  2F   1dxz      -0.073675 -0.003111 -0.073497 -0.093042  0.039464  0.014274
  2F   1dyz       0.062957  0.077667 -0.148159  0.167010  0.018961  0.117065
  2F   1dx2y2    -0.097978 -0.003641 -0.033227 -0.398169  0.210702  0.156200
  2F   1dxy      -0.023300 -0.008279  0.019856 -0.141923  0.048916 -0.373261
  3F   1s        -0.000050 -0.001572 -0.001898  0.011996 -0.017547  0.021366
  3F   2s         0.001371  0.039748  0.047550 -0.191724  0.280805 -0.240154
  3F   1pz        0.259351 -0.046169 -0.433412  0.057763 -0.106978  0.169189
  3F   1px        0.397618  0.394344 -0.088003 -0.056337  0.049119 -0.145270
  3F   1py        0.087850  0.208106  0.130136 -0.026812  0.033039  0.149273
  3F   3s         0.003517  0.166732  0.201329  0.227887 -0.332948  0.317456
  3F   2pz       -0.423274  0.149672  0.874274  0.088823  0.183483 -0.317643
  3F   2px       -0.656194 -0.799433  0.071862  0.276006  0.062383  0.218180
  3F   2py       -0.141376 -0.242951 -0.072017 -0.046051  0.167540 -0.028997
  3F   1dz2      -0.062613  0.018337  0.012546  0.336637  0.122058 -0.144491
  3F   1dxz      -0.017036  0.016392  0.022530  0.124933  0.064946  0.372657
  3F   1dyz      -0.066506  0.134370  0.127290  0.214225 -0.004096  0.103656
  3F   1dx2y2     0.075166  0.069291  0.109596 -0.109110 -0.320873  0.083323
  3F   1dxy      -0.075388 -0.019808 -0.068676  0.097913  0.058692  0.019241
                     36        37        38        39        40        41   
                   1.56527   1.56538   1.83449   1.83863   1.85687   1.85718
                   0.00000   0.00000   0.00000   0.00000   0.00000   0.00000
                  --------  --------  --------  --------  --------  --------
  0N   1s        -0.000000 -0.000019 -0.060502  0.000097  0.000173 -0.000315
  0N   2s        -0.000017 -0.000105 -0.119505  0.000263 -0.000033 -0.000231
  0N   1pz       -0.017978 -0.178219 -0.464376  0.000772 -0.161437 -0.008527
  0N   1px       -0.227810 -0.057893  0.220989  0.000187 -0.081367  0.199805
  0N   1py        0.099676 -0.164552  0.424285 -0.000848 -0.137655 -0.108192
  0N   3s         0.000322  0.000734  2.644529 -0.004690 -0.006374  0.012106
  0N   2pz        0.028945  0.284168 -0.853989  0.002584 -1.713126 -0.065411
  0N   2px        0.363529  0.092334  0.392781  0.004244 -0.848345  2.090649
  0N   2py       -0.158384  0.262949  0.777538 -0.002713 -1.435511 -1.157546
  0N   1dz2       0.034130 -0.061615 -0.085753 -0.000234  0.481692 -0.026751
  0N   1dxz      -0.159489  0.112627  0.156353 -0.000628  0.100929 -0.198726
  0N   1dyz       0.143594  0.029270  0.295448 -0.000371  0.026933  0.054093
  0N   1dx2y2    -0.046157 -0.052344  0.096115  0.000727  0.101969  0.418388
  0N   1dxy       0.072356  0.185834 -0.143049  0.000813 -0.057005  0.195957
  1F   1s        -0.023464 -0.005958  0.009308 -0.000057  0.008090 -0.019974
  1F   2s         0.364756  0.092652  0.158649  0.001391 -0.307405  0.757887
  1F   1pz        0.129824  0.038993 -0.109609 -0.012221 -0.123802  0.151506
  1F   1px       -0.194587 -0.049428  0.246332  0.000163 -0.082963  0.203705
  1F   1py       -0.121532 -0.024254  0.100188 -0.014553  0.005365 -0.182021
  1F   3s        -0.515525 -0.131068 -1.311390 -0.003526  1.012999 -2.495413
  1F   2pz       -0.117054 -0.139248  0.289815  0.020726  0.486280 -0.163852
  1F   2px        0.204706  0.051997  0.179295  0.000698 -0.185493  0.457332
  1F   2py        0.159336 -0.079388 -0.264256  0.025113  0.280165  0.443426
  1F   1dz2      -0.151126  0.437094  0.012846  0.478783  0.120559 -0.083820
  1F   1dxz       0.060452 -0.149605 -0.322686 -0.165194 -0.151273  0.181412
  1F   1dyz       0.352574  0.139269 -0.213140  0.049652  0.090426 -0.200297
  1F   1dx2y2    -0.066088  0.257706  0.017601  0.277114 -0.051221  0.249353
  1F   1dxy       0.023807 -0.174341  0.294388 -0.182833  0.003298 -0.219916
  2F   1s         0.006574  0.023304  0.009080  0.000012 -0.021444  0.003051
  2F   2s        -0.102263 -0.362220  0.167024 -0.001130  0.809219 -0.112301
  2F   1pz       -0.070922 -0.247756 -0.284431  0.002783 -0.088986  0.000064
  2F   1px        0.012087  0.016897 -0.014419 -0.015179 -0.180991  0.095923
  2F   1py        0.018544  0.083186  0.042452  0.010861 -0.263505 -0.012107
  2F   3s         0.144682  0.511590 -1.338308  0.004884 -2.657317  0.364218
  2F   2pz        0.093284  0.258397 -0.003112 -0.003241 -0.618716  0.158797
  2F   2px       -0.130034  0.011776 -0.241794  0.026030 -0.014260 -0.475034
  2F   2py        0.059315 -0.115578 -0.354388 -0.017505  0.256881  0.291280
  2F   1dz2      -0.074759  0.081972  0.322012 -0.098252  0.030340  0.027018
  2F   1dxz       0.349875 -0.155519 -0.136619  0.393292  0.194099 -0.141385
  2F   1dyz      -0.243651 -0.112838 -0.331561 -0.211371  0.223097  0.039759
  2F   1dx2y2    -0.361187 -0.039489 -0.051789 -0.349206 -0.087074  0.042548
  2F   1dxy      -0.098238  0.336371  0.010938 -0.193189  0.347368 -0.018463
  3F   1s         0.016897 -0.017337  0.009117  0.000001  0.013255  0.017122
  3F   2s        -0.262446  0.269697  0.165682 -0.001237 -0.502555 -0.644242
  3F   1pz       -0.071940  0.080672 -0.068433  0.010401 -0.190830 -0.168561
  3F   1px        0.018736 -0.008984 -0.014101  0.015825  0.063152  0.194972
  3F   1py        0.174829 -0.177201  0.279524  0.002652 -0.081638 -0.077911
  3F   3s         0.370376 -0.381536 -1.334252  0.005670  1.654119  2.113046
  3F   2pz        0.021345 -0.145890  0.353537 -0.018936  0.415082  0.019041
  3F   2px       -0.108857 -0.072679 -0.241579 -0.026987  0.341366 -0.330673
  3F   2py       -0.203998  0.170307  0.033960 -0.006702 -0.297100 -0.545225
  3F   1dz2       0.343145  0.173388 -0.062677 -0.380848  0.020338 -0.056188
  3F   1dxz      -0.053263  0.368383 -0.022686 -0.227145  0.231826  0.233926
  3F   1dyz      -0.229299  0.012169 -0.371052  0.162339 -0.180133 -0.133479
  3F   1dx2y2    -0.122569  0.024576 -0.272616  0.073667  0.068818  0.058758
  3F   1dxy      -0.238873 -0.271746  0.136866  0.375045  0.061833  0.256531
                     42        43        44        45        46        47   
                   1.92165   1.92179   2.25756   2.43020   2.43060   2.64932
                   0.00000   0.00000   0.00000   0.00000   0.00000   0.00000
                  --------  --------  --------  --------  --------  --------
  0N   1s         0.000000 -0.000034  0.026427  0.000046  0.000018 -0.000080
  0N   2s         0.000391  0.000096  0.195182  0.000273  0.000474 -0.000624
  0N   1pz       -0.006852 -0.070514  0.009790 -0.314022 -0.639927  0.003648
  0N   1px       -0.089131 -0.023340 -0.005444 -0.929407  0.099177 -0.001458
  0N   1py        0.039889 -0.064072 -0.010052  0.144319 -0.751801  0.003339
  0N   3s        -0.001026  0.000673 -6.887896  0.002324  0.006775 -0.004700
  0N   2pz       -0.069434 -0.749489  1.575936 -0.209946 -0.428322  0.003727
  0N   2px       -0.956019 -0.251037 -0.756422 -0.619484  0.066483 -0.001507
  0N   2py        0.424902 -0.687751 -1.440829  0.096983 -0.499794  0.000780
  0N   1dz2       0.056215  0.110167  0.072778  0.090740  0.208425 -0.002878
  0N   1dxz      -0.054761  0.111974 -0.127967  0.161257 -0.110258  0.001964
  0N   1dyz       0.095605  0.035239 -0.244814 -0.111166  0.034696  0.000520
  0N   1dx2y2    -0.169526  0.010579 -0.081297 -0.083756  0.134789 -0.002204
  0N   1dxy      -0.012249  0.134885  0.116861 -0.167201 -0.083912 -0.000441
  1F   1s         0.005974  0.001578  0.012189 -0.030589  0.003266 -0.000044
  1F   2s        -0.279128 -0.073360 -1.050984  0.359117 -0.037586 -0.000364
  1F   1pz        0.085790 -0.107005  0.071664 -0.142852 -0.051245 -0.153910
  1F   1px       -0.101769 -0.026625 -0.054767 -0.292952  0.031344 -0.000478
  1F   1py       -0.014501 -0.145348 -0.065522  0.116750 -0.085022 -0.168216
  1F   3s         1.048779  0.275168  3.670610  0.257562 -0.030474  0.003502
  1F   2pz       -0.072018  0.252048 -0.291628  0.331709  0.312788  0.425919
  1F   2px       -0.172853 -0.045388 -0.944854 -0.055861  0.006716 -0.001209
  1F   2py       -0.067990  0.278165  0.266832 -0.230104  0.404596  0.467660
  1F   1dz2       0.025841  0.330346  0.077177 -0.275093 -0.121018 -0.252667
  1F   1dxz       0.178177 -0.062349 -0.146345 -0.353017 -0.389305 -0.482541
  1F   1dyz      -0.655436 -0.138365 -0.171886 -0.198752  0.005852 -0.026841
  1F   1dx2y2    -0.111337  0.157537 -0.102861  0.475928 -0.137611 -0.144749
  1F   1dxy      -0.109095 -0.147381  0.133372  0.232804 -0.491888 -0.529801
  2F   1s        -0.001600 -0.005918  0.012201  0.018111  0.024866 -0.000111
  2F   2s         0.075493  0.277797 -1.050493 -0.211870 -0.289965 -0.000551
  2F   1pz       -0.011285 -0.128425  0.089702 -0.100228 -0.158269  0.028993
  2F   1px       -0.146073  0.040419 -0.027888 -0.173379 -0.103796 -0.185965
  2F   1py        0.108517  0.000029 -0.060328 -0.089772 -0.215848  0.129463
  2F   3s        -0.284569 -1.045376  3.667570 -0.154772 -0.215897  0.006069
  2F   2pz       -0.087572 -0.138793  0.682060 -0.180873 -0.142030 -0.076818
  2F   2px        0.289225 -0.144436  0.501278  0.436908 -0.107133  0.519851
  2F   2py       -0.226177  0.002684  0.575914 -0.058993  0.406180 -0.356874
  2F   1dz2      -0.027579  0.137657  0.062291 -0.495156 -0.500803 -0.111282
  2F   1dxz       0.261233 -0.006064 -0.139709  0.207009 -0.334348  0.382097
  2F   1dyz      -0.079991  0.221955 -0.239162 -0.210478  0.245537 -0.347359
  2F   1dx2y2    -0.154191  0.312667 -0.054080  0.352029 -0.216180  0.552577
  2F   1dxy      -0.285496 -0.564140  0.044416  0.019915 -0.126875  0.141335
  3F   1s        -0.004315  0.004381  0.012172  0.012458 -0.028131  0.000147
  3F   2s         0.202710 -0.204754 -1.050050 -0.145621  0.330619 -0.001800
  3F   1pz       -0.100496 -0.043609  0.067734  0.036087 -0.213152  0.126381
  3F   1px       -0.107426 -0.107036 -0.027636 -0.147806  0.138055  0.185538
  3F   1py        0.063948 -0.110298 -0.084337  0.068151 -0.195586  0.041162
  3F   3s        -0.762589  0.769276  3.668074 -0.107049  0.235180 -0.001313
  3F   2pz        0.181608  0.120394 -0.511367  0.130268  0.400092 -0.349600
  3F   2px        0.180972  0.267757  0.501475  0.450196  0.011215 -0.518120
  3F   2py        0.161923 -0.067325 -0.731141  0.159617 -0.139763 -0.109095
  3F   1dz2      -0.044025  0.400139  0.052258 -0.110898 -0.376880  0.366530
  3F   1dxz       0.543562 -0.338053 -0.056729 -0.021588 -0.093698  0.105553
  3F   1dyz       0.030041 -0.177503 -0.241094 -0.230289 -0.296571  0.373779
  3F   1dx2y2    -0.031166 -0.040202 -0.059559  0.545177 -0.423544 -0.404279
  3F   1dxy      -0.176807 -0.164572  0.134418 -0.276536 -0.292359  0.392680
                     48        49        50        51        52        53   
                   2.72094   2.72192   2.72197   3.10044   3.10053   3.42030
                   0.00000   0.00000   0.00000   0.00000   0.00000   0.00000
                  --------  --------  --------  --------  --------  --------
  0N   1s         0.034197 -0.003201 -0.001655  0.000002  0.000002 -0.243020
  0N   2s        -0.101347  0.009063  0.004611 -0.000065  0.000054 -3.416549
  0N   1pz       -0.379016  0.253762 -0.312432  0.208314 -0.236700  0.477757
  0N   1px        0.237195  0.487183  0.110056  0.386093  0.150609 -0.223174
  0N   1py        0.327842 -0.058451 -0.441357  0.025646 -0.337986 -0.445553
  0N   3s         1.094197 -0.104105 -0.053693 -0.000137  0.000103 -1.974625
  0N   2pz       -0.895008  0.191517 -0.119510 -0.059607  0.067494  0.061734
  0N   2px        0.456571  0.208425  0.037910 -0.110110 -0.043118 -0.026408
  0N   2py        0.808683 -0.089450 -0.248705 -0.007425  0.096478 -0.060949
  0N   1dz2       0.297099 -0.764026  1.035330 -0.651159  0.087789  0.094606
  0N   1dxz      -0.641754 -0.644564 -0.355804  0.102866  1.432928 -0.167313
  0N   1dyz      -1.027047  0.409282  0.252008 -1.095384 -0.392176 -0.323106
  0N   1dx2y2    -0.259437  0.605843  0.858559  1.055772  0.609942 -0.108060
  0N   1dxy       0.575914  0.688158 -0.089819 -1.041817  1.117004  0.153892
  1F   1s        -0.002590  0.019916  0.004813  0.017598  0.006871 -0.032619
  1F   2s         0.336189 -0.152749 -0.045092 -0.182365 -0.071316 -0.415151
  1F   1pz        0.050244  0.004685  0.078965 -0.032327 -0.190061  0.015277
  1F   1px       -0.119669  0.371199  0.091581  0.402055  0.157052 -0.132548
  1F   1py       -0.042421 -0.040361  0.078042  0.150273 -0.135470 -0.013830
  1F   3s        -0.775590 -0.811352 -0.173323 -0.834436 -0.325718  1.692892
  1F   2pz        0.469197  0.364107  0.018400  0.070494 -0.393598  0.104973
  1F   2px        0.202634  0.465985  0.105878  0.617913  0.241209 -1.141777
  1F   2py       -0.430586 -0.306673 -0.123645  0.222190 -0.373977 -0.097786
  1F   1dz2       0.005383  0.232526 -0.063792  0.263975 -0.073543 -0.486037
  1F   1dxz      -0.519751 -0.605606 -0.127702  0.000473  0.701039 -0.115427
  1F   1dyz       0.243411 -0.148410 -0.054184  0.079384  0.012574 -0.009880
  1F   1dx2y2    -0.060699 -0.313842 -0.142011 -0.332149 -0.231569  0.846753
  1F   1dxy       0.474155  0.551282  0.123015 -0.477417  0.580346  0.107627
  2F   1s        -0.005241 -0.013353  0.014850 -0.014742  0.011795 -0.032710
  2F   2s         0.352357  0.052038 -0.106972  0.153168 -0.122350 -0.421878
  2F   1pz        0.177642  0.210711 -0.227628  0.328133 -0.301468  0.126816
  2F   1px        0.017821  0.026516 -0.167711  0.187815  0.105855  0.033841
  2F   1py        0.007399  0.138724 -0.052799 -0.071642 -0.119527  0.021166
  2F   3s        -0.657054  0.684788 -0.624924  0.698911 -0.559632  1.707290
  2F   2pz        0.113224  0.130785 -0.169202  0.454558 -0.456355  1.094341
  2F   2px       -0.305788  0.369040 -0.245340  0.430481  0.263696  0.317687
  2F   2py       -0.483235  0.400190 -0.420598 -0.121274 -0.323115  0.216008
  2F   1dz2       0.344393 -0.264718  0.210027  0.308075 -0.508158  0.802396
  2F   1dxz      -0.135992  0.383847 -0.299778  0.566190  0.503198  0.464096
  2F   1dyz      -0.238344  0.523453 -0.551325 -0.369177 -0.411005  0.339495
  2F   1dx2y2     0.122279 -0.089173 -0.079063  0.167791  0.201474  0.034914
  2F   1dxy      -0.451407  0.221102 -0.238398 -0.014386 -0.022884  0.107936
  3F   1s        -0.006105 -0.005276 -0.019011 -0.002857 -0.018667 -0.032929
  3F   2s         0.357540  0.002389  0.101390  0.029203  0.193736 -0.434487
  3F   1pz        0.006060 -0.091583 -0.082825  0.136547  0.000785 -0.008669
  3F   1px        0.026757 -0.051520  0.160515  0.209875  0.049457  0.032621
  3F   1py       -0.191135 -0.096006 -0.297881 -0.024702 -0.445734 -0.126376
  3F   3s        -0.617482  0.321179  0.898632  0.135732  0.885133  1.735201
  3F   2pz        0.465461 -0.157824 -0.558474  0.308784 -0.096890 -0.121847
  3F   2px       -0.290506  0.214219  0.400076  0.495402  0.097974  0.323742
  3F   2py       -0.081592 -0.056209 -0.255736  0.002191 -0.655022 -1.125964
  3F   1dz2      -0.235722  0.131889  0.022258 -0.080528 -0.262614 -0.477498
  3F   1dxz       0.424677 -0.065448 -0.292676  0.094002 -0.005855 -0.065776
  3F   1dyz      -0.263019  0.244148  0.775330 -0.545769 -0.036139  0.210981
  3F   1dx2y2    -0.203584  0.040747  0.223711  0.281206 -0.522325 -0.708863
  3F   1dxy       0.156696 -0.211835 -0.475137 -0.752211 -0.014468 -0.477263
                     54        55   
                   3.44540   3.44599
                   0.00000   0.00000
                  --------  --------
  0N   1s        -0.001874  0.000700
  0N   2s        -0.026318  0.009703
  0N   1pz        0.010660 -0.872062
  0N   1px       -1.072619 -0.399880
  0N   1py        0.565684 -0.741657
  0N   3s        -0.013532  0.005601
  0N   2pz        0.003395 -0.441419
  0N   2px       -0.542892 -0.202682
  0N   2py        0.288349 -0.376399
  0N   1dz2       0.013662 -0.207768
  0N   1dxz      -0.185889  0.029227
  0N   1dyz       0.107915  0.020325
  0N   1dx2y2     0.119158 -0.077795
  0N   1dxy       0.105135  0.145789
  1F   1s        -0.021441 -0.007837
  1F   2s        -1.297965 -0.482920
  1F   1pz        0.057379  0.030966
  1F   1px        0.235337  0.088645
  1F   1py       -0.058690 -0.011464
  1F   3s         2.853051  1.057458
  1F   2pz       -0.047455 -0.194543
  1F   2px       -1.871810 -0.693584
  1F   2py        0.159417 -0.132517
  1F   1dz2      -0.600854  0.039807
  1F   1dxz      -0.007610  0.203665
  1F   1dyz       0.112387  0.069335
  1F   1dx2y2     0.820549  0.453172
  1F   1dxy      -0.128723  0.176609
  2F   1s         0.003484  0.022414
  2F   2s         0.225156  1.364791
  2F   1pz        0.030742  0.187286
  2F   1px        0.031791  0.121519
  2F   1py        0.015679  0.139016
  2F   3s        -0.488167 -2.996528
  2F   2pz       -0.245990 -1.708050
  2F   2px       -0.316142 -0.693183
  2F   2py        0.024435 -0.699966
  2F   1dz2      -0.077841 -0.684418
  2F   1dxz      -0.176942 -0.572730
  2F   1dyz       0.020725 -0.589531
  2F   1dx2y2    -0.363845 -0.009380
  2F   1dxy      -0.131905 -0.082718
  3F   1s         0.017215 -0.014295
  3F   2s         1.063629 -0.878260
  3F   1pz       -0.089409  0.083345
  3F   1px        0.103890 -0.071265
  3F   1py       -0.155158  0.130523
  3F   3s        -2.327924  1.924514
  3F   2pz        0.320956 -0.439706
  3F   2px       -0.692082  0.312311
  3F   2py        1.336430 -1.160836
  3F   1dz2       0.544878 -0.094328
  3F   1dxz       0.107216  0.053104
  3F   1dyz      -0.260354  0.397771
  3F   1dx2y2     0.325464 -0.550561
  3F   1dxy       0.519207 -0.307640
--------------
SCF ITERATIONS
--------------
               ***  Starting incremental Fock matrix formation  ***
===> SHARK/Fock/General/Sym: HFTyp=1 DoJ=1 DoX=1 facj= 2.000 facx=-0.500 NFock=1 NumOp=1 NMat=1 RangeSep=0 GeneralContraction=0 PGCOpt=0
    -> L=0 0 0 0:     0.002 sec done=      2826 (= 99.2%) skipped=        24 
    -> L=1 0 0 0:     0.008 sec done=      7164 (= 99.5%) skipped=        36 
    -> L=1 0 1 0:     0.008 sec done=      4651 (= 99.9%) skipped=         5 
    -> L=1 1 0 0:     0.004 sec done=      2700 (=100.0%) skipped=         0 
    -> L=1 1 1 0:     0.009 sec done=      3456 (=100.0%) skipped=         0 
    -> L=1 1 1 1:     0.003 sec done=       666 (=100.0%) skipped=         0 
    -> L=2 0 0 0:     0.004 sec done=      3600 (=100.0%) skipped=         0 
    -> RHF LowL loop time =     0.039 sec
    -> L=2 0 1 0:     0.010 sec done=      4608 (=100.0%) skipped=         0 
    -> L=2 0 1 1:     0.006 sec done=      1728 (=100.0%) skipped=         0 
    -> L=2 0 2 0:     0.003 sec done=      1176 (=100.0%) skipped=         0 
    -> L=2 1 0 0:     0.004 sec done=      2400 (=100.0%) skipped=         0 
    -> L=2 1 1 0:     0.008 sec done=      3072 (=100.0%) skipped=         0 
    -> L=2 1 2 0:     0.006 sec done=      1536 (=100.0%) skipped=         0 
    -> L=2 2 0 0:     0.001 sec done=       750 (=100.0%) skipped=         0 
    ->Total SHARK integral loop time =    0.040 sec
    -> L=0 1 2 2:     0.002 sec done=       960 (=100.0%) skipped=         0 
    -> L=0 2 2 2:     0.006 sec done=       480 (=100.0%) skipped=         0 
    -> L=1 1 1 2:     0.005 sec done=      1152 (=100.0%) skipped=         0 
    -> L=1 1 2 2:     0.002 sec done=       360 (=100.0%) skipped=         0 
    -> L=1 2 1 2:     0.003 sec done=       528 (=100.0%) skipped=         0 
    -> L=1 2 2 2:     0.003 sec done=       320 (=100.0%) skipped=         0 
    -> L=2 2 2 2:     0.001 sec done=        55 (=100.0%) skipped=         0 
    ->Total LIBINT loop time =    0.024 sec

                         ----------------------------
                         !        ITERATION     0   !
                         ----------------------------
   Total Energy        :    -351.874528732640 Eh
   Energy Change       :    -351.874528732640 Eh
   MAX-DP              :       0.086406125821
   RMS-DP              :       0.003230472684
   Actual Damping      :       0.7000
   Actual Level Shift  :       0.2500 Eh

===> SHARK/Fock/General/Sym: HFTyp=1 DoJ=1 DoX=1 facj= 2.000 facx=-0.500 NFock=1 NumOp=1 NMat=1 RangeSep=0 GeneralContraction=0 PGCOpt=0
    -> L=0 0 0 0:     0.002 sec done=      2799 (= 98.2%) skipped=        51 
    -> L=1 0 0 0:     0.008 sec done=      7146 (= 99.2%) skipped=        54 
    -> L=1 0 1 0:     0.008 sec done=      4635 (= 99.5%) skipped=        21 
    -> L=1 1 0 0:     0.004 sec done=      2700 (=100.0%) skipped=         0 
    -> L=1 1 1 0:     0.009 sec done=      3456 (=100.0%) skipped=         0 
    -> L=1 1 1 1:     0.003 sec done=       666 (=100.0%) skipped=         0 
    -> L=2 0 0 0:     0.004 sec done=      3558 (= 98.8%) skipped=        42 
    -> RHF LowL loop time =     0.039 sec
    -> L=2 0 1 0:     0.009 sec done=      4608 (=100.0%) skipped=         0 
    -> L=2 0 1 1:     0.006 sec done=      1728 (=100.0%) skipped=         0 
    -> L=2 0 2 0:     0.003 sec done=      1176 (=100.0%) skipped=         0 
    -> L=2 1 0 0:     0.004 sec done=      2400 (=100.0%) skipped=         0 
    -> L=2 1 1 0:     0.008 sec done=      3072 (=100.0%) skipped=         0 
    -> L=2 1 2 0:     0.006 sec done=      1536 (=100.0%) skipped=         0 
    -> L=2 2 0 0:     0.001 sec done=       750 (=100.0%) skipped=         0 
    ->Total SHARK integral loop time =    0.039 sec
    -> L=0 1 2 2:     0.002 sec done=       960 (=100.0%) skipped=         0 
    -> L=0 2 2 2:     0.002 sec done=       480 (=100.0%) skipped=         0 
    -> L=1 1 1 2:     0.005 sec done=      1152 (=100.0%) skipped=         0 
    -> L=1 1 2 2:     0.002 sec done=       360 (=100.0%) skipped=         0 
    -> L=1 2 1 2:     0.003 sec done=       528 (=100.0%) skipped=         0 
    -> L=1 2 2 2:     0.003 sec done=       320 (=100.0%) skipped=         0 
    -> L=2 2 2 2:     0.001 sec done=        55 (=100.0%) skipped=         0 
    ->Total LIBINT loop time =    0.019 sec

                         ----------------------------
                         !        ITERATION     1   !
                         ----------------------------
   Total Energy        :    -351.892519922456 Eh
   Energy Change       :      -0.017991189816 Eh
   MAX-DP              :       0.069333208259
   RMS-DP              :       0.002496239053
   Actual Damping      :       0.7000
   Actual Level Shift  :       0.2500 Eh

===> SHARK/Fock/General/Sym: HFTyp=1 DoJ=1 DoX=1 facj= 2.000 facx=-0.500 NFock=1 NumOp=1 NMat=1 RangeSep=0 GeneralContraction=0 PGCOpt=0
    -> L=0 0 0 0:     0.002 sec done=      2784 (= 97.7%) skipped=        66 
    -> L=1 0 0 0:     0.008 sec done=      7146 (= 99.2%) skipped=        54 
    -> L=1 0 1 0:     0.008 sec done=      4635 (= 99.5%) skipped=        21 
    -> L=1 1 0 0:     0.004 sec done=      2700 (=100.0%) skipped=         0 
    -> L=1 1 1 0:     0.009 sec done=      3456 (=100.0%) skipped=         0 
    -> L=1 1 1 1:     0.003 sec done=       666 (=100.0%) skipped=         0 
    -> L=2 0 0 0:     0.004 sec done=      3550 (= 98.6%) skipped=        50 
    -> RHF LowL loop time =     0.039 sec
    -> L=2 0 1 0:     0.009 sec done=      4608 (=100.0%) skipped=         0 
    -> L=2 0 1 1:     0.006 sec done=      1728 (=100.0%) skipped=         0 
    -> L=2 0 2 0:     0.003 sec done=      1176 (=100.0%) skipped=         0 
    -> L=2 1 0 0:     0.004 sec done=      2400 (=100.0%) skipped=         0 
    -> L=2 1 1 0:     0.008 sec done=      3072 (=100.0%) skipped=         0 
    -> L=2 1 2 0:     0.006 sec done=      1536 (=100.0%) skipped=         0 
    -> L=2 2 0 0:     0.001 sec done=       750 (=100.0%) skipped=         0 
    ->Total SHARK integral loop time =    0.039 sec
    -> L=0 1 2 2:     0.002 sec done=       960 (=100.0%) skipped=         0 
    -> L=0 2 2 2:     0.002 sec done=       480 (=100.0%) skipped=         0 
    -> L=1 1 1 2:     0.005 sec done=      1152 (=100.0%) skipped=         0 
    -> L=1 1 2 2:     0.002 sec done=       360 (=100.0%) skipped=         0 
    -> L=1 2 1 2:     0.003 sec done=       528 (=100.0%) skipped=         0 
    -> L=1 2 2 2:     0.003 sec done=       320 (=100.0%) skipped=         0 
    -> L=2 2 2 2:     0.001 sec done=        55 (=100.0%) skipped=         0 
    ->Total LIBINT loop time =    0.019 sec
                               ***Turning on DIIS***

                         ----------------------------
                         !        ITERATION     2   !
                         ----------------------------
   Total Energy        :    -351.904448031696 Eh
   Energy Change       :      -0.011928109240 Eh
   MAX-DP              :       0.145146790298
   RMS-DP              :       0.005519924184
   Actual Damping      :       0.0000
   Actual Level Shift  :       0.2500 Eh
   DIIS-Error          :       0.042557612093

===> SHARK/Fock/General/Sym: HFTyp=1 DoJ=1 DoX=1 facj= 2.000 facx=-0.500 NFock=1 NumOp=1 NMat=1 RangeSep=0 GeneralContraction=0 PGCOpt=0
    -> L=0 0 0 0:     0.002 sec done=      2805 (= 98.4%) skipped=        45 
    -> L=1 0 0 0:     0.008 sec done=      7146 (= 99.2%) skipped=        54 
    -> L=1 0 1 0:     0.008 sec done=      4635 (= 99.5%) skipped=        21 
    -> L=1 1 0 0:     0.004 sec done=      2700 (=100.0%) skipped=         0 
[...]
 2 F  dx2y2           0.5       2.5       0.1       0.0       0.0       0.0
 2 F  dxy             0.6       0.0       0.5       0.0       0.1       0.0
 3 F  s               0.0       0.1       1.8       9.4       2.1       0.1
 3 F  pz             13.3       7.8      14.7       0.1       0.0       4.9
 3 F  px             22.4       6.6       8.6       1.7       0.1       0.3
 3 F  py              1.1       0.1       2.7      36.8       8.4      20.5
 3 F  dz2             1.6       0.0       0.5       0.5       0.2       1.0
 3 F  dxz             0.3       0.3       0.6       0.0       0.1       0.0
 3 F  dyz             0.9       1.0       0.0       0.1       0.5       0.9
 3 F  dx2y2           1.0       1.4       0.4       0.9       0.5       3.9
 3 F  dxy             0.5       0.1       0.0       1.4       0.1       0.0

                     30        31        32        33        34        35   
                   1.61254   1.61254   1.61836   1.62855   1.62855   1.70466
                   0.00000   0.00000   0.00000   0.00000   0.00000   0.00000
                  --------  --------  --------  --------  --------  --------
 0 N  s               0.0       0.0       0.0       0.0       0.0       0.7
 0 N  pz              0.0       0.0       0.0       0.6       0.5       0.7
 0 N  px              0.1       0.0       0.0       1.4       0.4       0.2
 0 N  py              0.0       0.1       0.0       0.0       1.2       0.6
 0 N  dz2             0.7       3.6       0.0       0.1       0.2       1.7
 0 N  dxz             2.3      12.9       0.0       0.1       5.4       5.4
 0 N  dyz             6.3       1.6       0.0       2.6       0.7      19.7
 0 N  dx2y2           0.7       0.9       0.0       1.4       0.2       2.2
 0 N  dxy            12.2       3.2       0.0       4.2       1.8       4.5
 1 F  s               0.5       0.1       0.0       0.0       0.0       0.4
 1 F  pz             10.4       3.1      13.2      18.8       2.2       0.7
 1 F  px              1.1       0.2       0.0       0.1       0.0       4.3
 1 F  py             10.5       0.9      15.8       0.9      20.5       0.6
 1 F  dz2             0.1       0.0       0.4       0.1       0.0       0.2
 1 F  dxz             3.6       8.2       1.7       2.1       5.6       5.7
 1 F  dyz             1.3       0.2       0.0       0.0       0.0       3.3
 1 F  dx2y2           0.2       0.0       0.1       0.3       0.1       1.4
 1 F  dxy            10.4       0.9       2.1       1.5       7.6       4.8
 2 F  s               0.3       0.2       0.0       0.0       0.0       0.4
 2 F  pz              0.6       0.5       0.4       3.2       0.2       2.2
 2 F  px              3.5       4.1      19.3      15.1       5.0       1.4
 2 F  py             12.2       5.2       9.2       1.9      17.1       2.1
 2 F  dz2             2.1       3.3       0.1       0.0       0.7       0.9
 2 F  dxz             0.0       6.4       1.1       3.5       4.7       1.9
 2 F  dyz            11.1       0.4       0.9       0.7       4.3       2.9
 2 F  dx2y2           0.3       1.2       2.1       0.9       2.3       0.7
 2 F  dxy             0.2       0.2       0.1       0.1       0.0       8.9
 3 F  s               0.0       0.5       0.0       0.0       0.0       0.4
 3 F  pz              0.8      17.3       8.8       6.3      13.2       1.7
 3 F  px              0.1       7.5      19.3      16.6       3.5       1.4
 3 F  py              0.0       0.5       0.9       0.8       2.0       2.5
 3 F  dz2             0.3       0.1       0.9       0.7       0.0       0.9
 3 F  dxz             0.0       0.2       0.1       0.0       0.1       8.1
 3 F  dyz             3.8       9.4       1.0       4.8       0.2       3.6
 3 F  dx2y2           1.0       3.6       1.2       3.1       0.2       0.1
 3 F  dxy             3.1       3.4       1.2       8.1       0.1       2.7

                     36        37        38        39        40        41   
                   1.91051   1.91051   2.02824   2.10898   2.13010   2.13010
                   0.00000   0.00000   0.00000   0.00000   0.00000   0.00000
                  --------  --------  --------  --------  --------  --------
 0 N  s               0.0       0.0       0.3       0.0       0.0       0.0
 0 N  pz              0.1       0.1       0.4       0.0       0.1       0.1
 0 N  px              0.2       0.1       0.1       0.0       0.3       0.1
 0 N  py              0.0       0.2       0.3       0.0       0.0       0.2
 0 N  dz2             1.1       0.1       0.2       0.0       0.2       0.2
 0 N  dxz             0.1       2.0       0.5       0.0       0.1       0.2
 0 N  dyz             1.1       0.3       1.9       0.0       0.1       0.0
 0 N  dx2y2           1.3       1.3       0.2       0.0       0.0       0.2
 0 N  dxy             1.2       1.2       0.4       0.0       0.2       0.0
 1 F  s               9.5       3.0       0.1       0.0       1.5       0.3
 1 F  pz              0.1       0.5       0.2       0.0       0.1       0.3
 1 F  px              2.0       0.7       0.5       0.0       0.0       0.0
 1 F  py              0.6       0.0       0.1       0.0       0.3       0.0
 1 F  dz2             2.1      28.0       0.5      20.3       0.0       0.3
 1 F  dxz             0.0       0.2       1.0       2.7       2.7       0.8
 1 F  dyz             2.7       0.1      28.6       0.2      42.9      10.1
 1 F  dx2y2          10.9       2.7       0.1       6.8       3.4       0.4
 1 F  dxy             0.2       0.0       0.8       3.3       2.5       0.4
 2 F  s               9.3       3.2       0.1       0.0       1.2       0.6
 2 F  pz              2.3       1.0       0.7       0.0       0.0       0.0
 2 F  px              0.2       0.2       0.0       0.0       0.0       0.3
 2 F  py              0.1       0.1       0.1       0.0       0.4       0.0
 2 F  dz2             3.3       0.3       1.4       0.9       0.4       0.1
 2 F  dxz             0.0       6.4       1.5      14.4       0.4       0.6
 2 F  dyz             2.5       0.0      10.1       4.3       0.2       0.2
 2 F  dx2y2          10.5      17.5       3.6      10.5       4.5       3.3
 2 F  dxy             0.1       6.3      14.5       3.3      37.6      16.1
 3 F  s               0.0      12.5       0.1       0.0       0.0       1.8
 3 F  pz              0.1       0.1       0.1       0.0       0.1       0.3
 3 F  px              0.3       0.0       0.0       0.0       0.1       0.1
 3 F  py              0.0       3.3       0.7       0.0       0.0       0.1
 3 F  dz2            23.5       2.7       2.4      12.7       0.0       4.6
 3 F  dxz             6.0       1.5      15.3       4.6       0.6      51.5
 3 F  dyz             0.0       1.2       9.8       2.5       0.0       0.2
 3 F  dx2y2           4.7       1.9       2.8       0.4       0.0       3.8
 3 F  dxy             3.8       1.5       0.8      13.1       0.0       2.7

                     42        43        44        45        46        47   
                   2.17852   2.17852   2.44955   2.44955   2.47887   2.57850
                   0.00000   0.00000   0.00000   0.00000   0.00000   0.00000
                  --------  --------  --------  --------  --------  --------
 0 N  s               0.0       0.0       0.0       0.0       0.0      23.5
 0 N  pz              1.9       0.7       1.4       1.2       0.0       1.3
 0 N  px              2.8       1.8       3.6       0.9       0.0       0.3
 0 N  py              0.4       2.7       0.1       2.9       0.0       1.1
 0 N  dz2             1.8       0.2       0.1       0.1       0.0       0.4
 0 N  dxz             0.4       0.4       0.0       0.1       0.0       1.4
 0 N  dyz             0.4       0.1       0.0       0.0       0.0       5.0
 0 N  dx2y2           0.6       2.2       0.0       0.1       0.0       0.6
 0 N  dxy             0.3       0.6       0.1       0.0       0.0       1.2
 1 F  s               9.8       6.1       0.3       0.1       0.0       3.8
 1 F  pz              0.1       0.1       3.8       0.0       2.0       0.0
 1 F  px              0.1       0.1       0.5       0.1       0.0       0.6
 1 F  py              0.0       0.1       0.6       3.0       2.4       0.0
 1 F  dz2            18.0       1.5       0.1       0.0       4.0       4.2
 1 F  dxz             0.0       0.0      25.8       0.2      10.7       0.2
 1 F  dyz             1.4       2.0       2.8       0.7       0.0       0.0
 1 F  dx2y2           3.9      17.6       0.6       0.2       1.3      12.8
 1 F  dxy             0.0       0.0       4.8      19.5      12.8       0.2
 2 F  s              13.7       2.2       0.3       0.1       0.0       3.8
 2 F  pz              0.2       0.0       0.2       0.0       0.1       0.4
 2 F  px              0.1       0.2       3.2       0.2       2.9       0.1
 2 F  py              0.0       0.1       1.3       3.2       1.4       0.1
 2 F  dz2             8.9       2.4      19.7       3.9       0.5       6.5
 2 F  dxz             9.3       0.2       6.8       2.4       5.9       5.3
 2 F  dyz             5.7       2.3       3.8      14.5       5.3       4.7
 2 F  dx2y2           0.3      12.3       1.5       1.9      16.1       0.0
 2 F  dxy             1.7       1.3       0.4       0.0       1.2       0.9
 3 F  s               0.3      15.6       0.0       0.4       0.0       3.8
 3 F  pz              0.1       0.0       0.6       4.0       1.3       0.0
 3 F  px              0.2       0.0       1.8       1.5       2.9       0.1
 3 F  py              0.0       0.2       0.1       0.1       0.1       0.5
 3 F  dz2            12.9       5.1       0.6       2.4       7.5       2.7
 3 F  dxz             2.2       1.5       0.0       0.2       0.7       0.5
 3 F  dyz             0.2       4.4       3.7      20.0       6.3       3.0
 3 F  dx2y2           1.0       8.4       3.8      14.7       8.2       5.5
 3 F  dxy             1.1       7.6       7.7       1.6       6.3       5.7

                     48        49        50        51        52        53   
                   2.58281   2.58281   2.97633   2.97633   3.02589   3.33930
                   0.00000   0.00000   0.00000   0.00000   0.00000   0.00000
                  --------  --------  --------  --------  --------  --------
 0 N  s               0.0       0.0       0.0       0.0       4.8       0.0
 0 N  pz              1.3       0.5       0.4       0.5       2.3       1.7
 0 N  px              1.8       1.3       1.3       0.2       0.5       5.0
 0 N  py              0.3       1.8       0.0       1.0       2.0       0.1
 0 N  dz2            44.7       6.9       1.0       7.0       1.9       5.7
 0 N  dxz             8.5       0.0       4.6      29.5       6.1       0.6
 0 N  dyz             1.2       0.0      14.6       3.6      22.3       2.3
 0 N  dx2y2           5.8      45.3       2.2       1.3       2.4       5.4
 0 N  dxy             0.1       8.1      27.0       7.9       5.1       0.9
 1 F  s               2.7       1.9       1.9       0.3       1.0      16.9
 1 F  pz              0.1       0.0       0.0       0.6       0.7       0.0
 1 F  px              6.3       4.4       0.3       0.1       0.1       6.4
 1 F  py              0.0       0.1       0.4       0.3       0.6       0.0
 1 F  dz2             1.4       4.3       0.2       2.0       0.1       3.7
 1 F  dxz             0.1       0.1       0.7      10.6       7.9       0.1
 1 F  dyz             0.2       0.0       0.8       0.1       0.3       0.0
 1 F  dx2y2           1.9       0.4       2.4       0.0       0.2      11.8
 1 F  dxy             0.2       0.0       8.1       4.0       6.6       0.9
 2 F  s               4.1       0.6       1.4       0.8       1.0      13.5
 2 F  pz              7.3       1.1       0.1       0.0       0.5       4.0
 2 F  px              1.4       0.0       0.0       0.8       0.2       1.1
 2 F  py              0.7       0.3       0.7       0.0       0.7       0.2
 2 F  dz2             0.9       0.0       0.0       1.4       8.0       6.2
 2 F  dxz             0.0       1.1       0.4      13.4       0.5       6.6
 2 F  dyz             0.1       0.1      12.7       0.0       3.0       0.5
 2 F  dx2y2           1.0       4.3       0.0       0.4       0.2       0.6
 2 F  dxy             0.0       1.2       0.4       0.0       3.3       0.2
 3 F  s               0.1       4.5       0.0       2.2       1.0       0.2
 3 F  pz              0.1       0.5       0.4       0.3       0.8       0.1
 3 F  px              0.0       1.4       0.5       0.3       0.2       0.4
 3 F  py              0.3       8.5       0.0       0.1       0.4       0.0
 3 F  dz2             4.0       1.0       0.1       0.0       2.2       0.5
 3 F  dxz             1.4       0.1       0.4       0.1       3.0       0.0
 3 F  dyz             0.0       0.0       6.5       6.0       4.8       1.1
 3 F  dx2y2           1.1       0.3       1.5       0.5       4.2       0.5
 3 F  dxy             0.9       0.0       8.9       4.8       0.8       2.7

                     54        55   
                   3.33930   3.39169
                   0.00000   0.00000
                  --------  --------
 0 N  s               0.0      17.2
 0 N  pz              1.8       1.3
 0 N  px              1.0       0.3
 0 N  py              4.0       1.1
 0 N  dz2             1.6       0.0
 0 N  dxz             3.4       0.1
 0 N  dyz             0.2       0.4
 0 N  dx2y2           5.9       0.0
 0 N  dxy             3.9       0.1
 1 F  s               3.5      18.6
 1 F  pz              0.2       0.0
 1 F  px              1.3       2.4
 1 F  py              0.2       0.0
 1 F  dz2             1.0       1.2
 1 F  dxz             2.1       0.2
 1 F  dyz             0.0       0.1
 1 F  dx2y2           2.2       3.8
 1 F  dxy             1.8       0.1
 2 F  s               6.9      18.6
 2 F  pz              2.3       2.1
 2 F  px              0.0       0.2
 2 F  py              0.6       0.1
 2 F  dz2             5.2       4.1
 2 F  dxz             0.0       0.9
 2 F  dyz             3.7       0.3
 2 F  dx2y2           0.6       0.0
 2 F  dxy             0.0       0.2
 3 F  s              20.2      18.6
 3 F  pz              0.4       0.0
 3 F  px              0.8       0.2
 3 F  py              6.6       2.1
 3 F  dz2             3.9       1.1
 3 F  dxz             0.1       0.1
 3 F  dyz             1.5       0.0
 3 F  dx2y2           9.2       3.3
 3 F  dxy             4.1       1.0


                      *****************************
                      * MAYER POPULATION ANALYSIS *
                      *****************************

  NA   - Mulliken gross atomic population
  ZA   - Total nuclear charge
  QA   - Mulliken gross atomic charge
  VA   - Mayer's total valence
  BVA  - Mayer's bonded valence
  FA   - Mayer's free valence

  ATOM       NA         ZA         QA         VA         BVA        FA
  0 N      5.9943     7.0000     1.0057     2.5761     2.5761     0.0000
  1 F      9.3352     9.0000    -0.3352     0.9014     0.9014     0.0000
  2 F      9.3352     9.0000    -0.3352     0.9014     0.9014     0.0000
  3 F      9.3352     9.0000    -0.3352     0.9014     0.9014     0.0000

  Mayer bond orders larger than 0.100000
B(  0-N ,  1-F ) :   0.8587 B(  0-N ,  2-F ) :   0.8587 B(  0-N ,  3-F ) :   0.8587 


-------
TIMINGS
-------

Total SCF time: 0 days 0 hours 0 min 1 sec 

Total time                  ....       1.234 sec
Sum of individual times     ....       0.949 sec  ( 76.9%)

Fock matrix formation       ....       0.541 sec  ( 43.8%)
Diagonalization             ....       0.003 sec  (  0.2%)
Density matrix formation    ....       0.000 sec  (  0.0%)
Population analysis         ....       0.390 sec  ( 31.6%)
Initial guess               ....       0.003 sec  (  0.2%)
Orbital Transformation      ....       0.000 sec  (  0.0%)
Orbital Orthonormalization  ....       0.000 sec  (  0.0%)
DIIS solution               ....       0.000 sec  (  0.0%)
SOSCF solution              ....       0.012 sec  (  1.0%)

Maximum memory used throughout the entire SCF-calculation: 227.8 MB

-------------------------   --------------------
FINAL SINGLE POINT ENERGY      -352.535691028553
-------------------------   --------------------

                                *** OPTIMIZATION RUN DONE ***

                            ***************************************
                            *     ORCA property calculations      *
                            ***************************************

                                    ---------------------
                                    Active property flags
                                    ---------------------
   (+) Dipole Moment


------------------------------------------------------------------------------
                       ORCA ELECTRIC PROPERTIES CALCULATION
------------------------------------------------------------------------------

Dipole Moment Calculation                       ... on
Quadrupole Moment Calculation                   ... off
Polarizability Calculation                      ... off
GBWName                                         ... result.gbw
Electron density                                ... result.scfp
----------------------
SHARK INTEGRAL PACKAGE
----------------------

Number of atoms                             ...      4
Number of basis functions                   ...     56
Number of shells                            ...     24
Maximum angular momentum                    ...      2
Integral batch strategy                     ... SHARK/LIBINT Hybrid
RI-J (if used) integral strategy            ... SPLIT-RIJ (Revised 2003 algorithm where possible)
Printlevel                                  ...      2
Contraction scheme used                     ... SEGMENTED contraction
Coulomb Range Separation                    ... NOT USED
Exchange Range Separation                   ... NOT USED
Finite Nucleus Model                        ... NOT USED
Auxiliary Coulomb fitting basis             ... NOT available
Auxiliary J/K fitting basis                 ... NOT available
Auxiliary Correlation fitting basis         ... NOT available
Auxiliary 'external' fitting basis          ... NOT available
Integral threshold                          ...     2.500000e-11
Primitive cut-off                           ...     2.500000e-12
Primitive pair pre-selection threshold      ...     2.500000e-12

The origin for moment calculation is the CENTER OF MASS  = (-2.576935,  2.209116 -0.375092)

-------------
DIPOLE MOMENT
-------------
                                X             Y             Z
Electronic contribution:      0.07912       0.15096      -0.16521
Nuclear contribution   :     -0.10550      -0.20130       0.22029
                        -----------------------------------------
Total Dipole Moment    :     -0.02638      -0.05034       0.05509
                        -----------------------------------------
Magnitude (a.u.)       :      0.07915
Magnitude (Debye)      :      0.20117



--------------------
Rotational spectrum 
--------------------
 
Rotational constants in cm-1:     0.378758     0.378757     0.206480 
Rotational constants in MHz : 11354.866672 11354.862371  6190.122079 

 Dipole components along the rotational axes: 
x,y,z [a.u.] :     0.000000    -0.000000     0.079146 
x,y,z [Debye]:     0.000000    -0.000000     0.201172 

 

Timings for individual modules:

Sum of individual times         ...       25.103 sec (=   0.418 min)
GTO integral calculation        ...        1.510 sec (=   0.025 min)   6.0 %
SCF iterations                  ...       16.753 sec (=   0.279 min)  66.7 %
SCF Gradient evaluation         ...        6.542 sec (=   0.109 min)  26.1 %
Geometry relaxation             ...        0.299 sec (=   0.005 min)   1.2 %
                             ****ORCA TERMINATED NORMALLY****
TOTAL RUN TIME: 0 days 0 hours 0 minutes 35 seconds 563 msec
