
                                 *****************
                                 * O   R   C   A *
                                 *****************

                                            #,                                       
                                            ###                                      
                                            ####                                     
                                            #####                                    
                                            ######                                   
                                           ########,                                 
                                     ,,################,,,,,                         
                               ,,#################################,,                 
                          ,,##########################################,,             
                       ,#########################################, ''#####,          
                    ,#############################################,,   '####,        
                  ,##################################################,,,,####,       
                ,###########''''           ''''###############################       
              ,#####''   ,,,,##########,,,,          '''####'''          '####       
            ,##' ,,,,###########################,,,                        '##       
           ' ,,###''''                  '''############,,,                           
         ,,##''                                '''############,,,,        ,,,,,,###''
      ,#''                                            '''#######################'''  
     '                                                          ''''####''''         
             ,#######,   #######,   ,#######,      ##                                
            ,#'     '#,  ##    ##  ,#'     '#,    #''#        ######   ,####,        
            ##       ##  ##   ,#'  ##            #'  '#       #        #'  '#        
            ##       ##  #######   ##           ,######,      #####,   #    #        
            '#,     ,#'  ##    ##  '#,     ,#' ,#      #,         ##   #,  ,#        
             '#######'   ##     ##  '#######'  #'      '#     #####' # '####'        



                  #######################################################
                  #                        -***-                        #
                  #          Department of theory and spectroscopy      #
                  #    Directorship and core code : Frank Neese         #
                  #        Max Planck Institute fuer Kohlenforschung    #
                  #                Kaiser Wilhelm Platz 1               #
                  #                 D-45470 Muelheim/Ruhr               #
                  #                      Germany                        #
                  #                                                     #
                  #                  All rights reserved                #
                  #                        -***-                        #
                  #######################################################


                         Program Version 5.0.1 -  RELEASE  -


 With contributions from (in alphabetic order):
   Daniel Aravena         : Magnetic Suceptibility
   Michael Atanasov       : Ab Initio Ligand Field Theory (pilot matlab implementation)
   Alexander A. Auer      : GIAO ZORA, VPT2 properties, NMR spectrum
   Ute Becker             : Parallelization
   Giovanni Bistoni       : ED, misc. LED, open-shell LED, HFLD
   Martin Brehm           : Molecular dynamics
   Dmytro Bykov           : SCF Hessian
   Vijay G. Chilkuri      : MRCI spin determinant printing, contributions to CSF-ICE
   Dipayan Datta          : RHF DLPNO-CCSD density
   Achintya Kumar Dutta   : EOM-CC, STEOM-CC
   Dmitry Ganyushin       : Spin-Orbit,Spin-Spin,Magnetic field MRCI
   Miquel Garcia          : C-PCM and meta-GGA Hessian, CC/C-PCM, Gaussian charge scheme
   Yang Guo               : DLPNO-NEVPT2, F12-NEVPT2, CIM, IAO-localization
   Andreas Hansen         : Spin unrestricted coupled pair/coupled cluster methods
   Benjamin Helmich-Paris : MC-RPA, TRAH-SCF, COSX integrals
   Lee Huntington         : MR-EOM, pCC
   Robert Izsak           : Overlap fitted RIJCOSX, COSX-SCS-MP3, EOM
   Marcus Kettner         : VPT2
   Christian Kollmar      : KDIIS, OOCD, Brueckner-CCSD(T), CCSD density, CASPT2, CASPT2-K
   Simone Kossmann        : Meta GGA functionals, TD-DFT gradient, OOMP2, MP2 Hessian
   Martin Krupicka        : Initial AUTO-CI
   Lucas Lang             : DCDCAS
   Marvin Lechner         : AUTO-CI (C++ implementation), FIC-MRCC
   Dagmar Lenk            : GEPOL surface, SMD
   Dimitrios Liakos       : Extrapolation schemes; Compound Job, initial MDCI parallelization
   Dimitrios Manganas     : Further ROCIS development; embedding schemes
   Dimitrios Pantazis     : SARC Basis sets
   Anastasios Papadopoulos: AUTO-CI, single reference methods and gradients
   Taras Petrenko         : DFT Hessian,TD-DFT gradient, ASA, ECA, R-Raman, ABS, FL, XAS/XES, NRVS
   Peter Pinski           : DLPNO-MP2, DLPNO-MP2 Gradient
   Christoph Reimann      : Effective Core Potentials
   Marius Retegan         : Local ZFS, SOC
   Christoph Riplinger    : Optimizer, TS searches, QM/MM, DLPNO-CCSD(T), (RO)-DLPNO pert. Triples
   Tobias Risthaus        : Range-separated hybrids, TD-DFT gradient, RPA, STAB
   Michael Roemelt        : Original ROCIS implementation
   Masaaki Saitow         : Open-shell DLPNO-CCSD energy and density
   Barbara Sandhoefer     : DKH picture change effects
   Avijit Sen             : IP-ROCIS
   Kantharuban Sivalingam : CASSCF convergence, NEVPT2, FIC-MRCI
   Bernardo de Souza      : ESD, SOC TD-DFT
   Georgi Stoychev        : AutoAux, RI-MP2 NMR, DLPNO-MP2 response
   Willem Van den Heuvel  : Paramagnetic NMR
   Boris Wezisla          : Elementary symmetry handling
   Frank Wennmohs         : Technical directorship


 We gratefully acknowledge several colleagues who have allowed us to
 interface, adapt or use parts of their codes:
   Stefan Grimme, W. Hujo, H. Kruse, P. Pracht,  : VdW corrections, initial TS optimization,
                  C. Bannwarth, S. Ehlert          DFT functionals, gCP, sTDA/sTD-DF
   Ed Valeev, F. Pavosevic, A. Kumar             : LibInt (2-el integral package), F12 methods
   Garnet Chan, S. Sharma, J. Yang, R. Olivares  : DMRG
   Ulf Ekstrom                                   : XCFun DFT Library
   Mihaly Kallay                                 : mrcc  (arbitrary order and MRCC methods)
   Jiri Pittner, Ondrej Demel                    : Mk-CCSD
   Frank Weinhold                                : gennbo (NPA and NBO analysis)
   Christopher J. Cramer and Donald G. Truhlar   : smd solvation model
   Lars Goerigk                                  : TD-DFT with DH, B97 family of functionals
   V. Asgeirsson, H. Jonsson                     : NEB implementation
   FAccTs GmbH                                   : IRC, NEB, NEB-TS, DLPNO-Multilevel, CI-OPT
                                                   MM, QMMM, 2- and 3-layer-ONIOM, Crystal-QMMM,
                                                   LR-CPCM, SF, NACMEs, symmetry and pop. for TD-DFT,
                                                   nearIR, NL-DFT gradient (VV10), updates on ESD,
                                                   ML-optimized integration grids
   S Lehtola, MJT Oliveira, MAL Marques          : LibXC Library
   Liviu Ungur et al                             : ANISO software


 Your calculation uses the libint2 library for the computation of 2-el integrals
 For citations please refer to: http://libint.valeyev.net

 Your ORCA version has been built with support for libXC version: 5.1.0
 For citations please refer to: https://tddft.org/programs/libxc/

 This ORCA versions uses:
   CBLAS   interface :  Fast vector & matrix operations
   LAPACKE interface :  Fast linear algebra routines
   SCALAPACK package :  Parallel linear algebra routines
   Shared memory     :  Shared parallel matrices
   BLAS/LAPACK       :  OpenBLAS 0.3.15  USE64BITINT DYNAMIC_ARCH NO_AFFINITY Haswell SINGLE_THREADED
        Core in use  :  Haswell
   Copyright (c) 2011-2014, The OpenBLAS Project


================================================================================

----- Orbital basis set information -----
Your calculation utilizes the basis: 6-31G(d)
   H-He, Li-Ne : W. J. Hehre, R. Ditchfield and J.A. Pople, J. Chem. Phys. 56, 2257 (1972).
                 Note: He and Ne are unpublished basis sets taken from the Gaussian program.
                 Note: Li and B from J. D. Dill and J. A. Pople, J. Chem. Phys. 62, 2921 (1975).
   Na - Ar     : M. M. Francl, W. J. Pietro, W. J. Hehre, J. S. Binkley, M. S. Gordon, 
                 D. J. DeFrees and J. A. Pople, J. Chem. Phys. 77, 3654 (1982).
   K - Zn      : V. A. Rassolov, J. A. Pople, M. A. Ratner, and T. L. Windus, J. Chem. Phys. 109, 1223 (1998).

================================================================================
                                        WARNINGS
                       Please study these warnings very carefully!
================================================================================


WARNING: Geometry Optimization
  ===> : Switching off AutoStart
         For restart on a previous wavefunction, please use MOREAD

INFO   : the flag for use of the SHARK integral package has been found!

================================================================================
                                       INPUT FILE
================================================================================
NAME = result.inp
|  1> # avogadro generated ORCA input file 
|  2> # Basic Mode
|  3> # 
|  4> ! HF OPT 6-31g(d) LargePrint
|  5> 
|  6> * xyz 0 1
|  7>    N       -0.17417        1.00947        0.00000
|  8>    H        0.84583        1.00947        0.00000
|  9>    H       -0.51417        1.61554        0.74664
| 10>    H       -0.51418        0.05982        0.15156
| 11> *
| 12> 
| 13> 
| 14>                          ****END OF INPUT****
================================================================================

                       *****************************
                       * Geometry Optimization Run *
                       *****************************

Geometry optimization settings:
Update method            Update   .... BFGS
Choice of coordinates    CoordSys .... Z-matrix Internals
Initial Hessian          InHess   .... Almoef's Model

Convergence Tolerances:
Energy Change            TolE     ....  5.0000e-06 Eh
Max. Gradient            TolMAXG  ....  3.0000e-04 Eh/bohr
RMS Gradient             TolRMSG  ....  1.0000e-04 Eh/bohr
Max. Displacement        TolMAXD  ....  4.0000e-03 bohr
RMS Displacement         TolRMSD  ....  2.0000e-03 bohr
Strict Convergence                ....  False
------------------------------------------------------------------------------
                        ORCA OPTIMIZATION COORDINATE SETUP
------------------------------------------------------------------------------

The optimization will be done in new redundant internal coordinates
Making redundant internal coordinates   ...  (new redundants) done
Evaluating the initial hessian          ...  (Almloef) done
Evaluating the coordinates              ...  done
Calculating the B-matrix                .... done
Calculating the G-matrix                .... done
Diagonalizing the G-matrix              .... done
The first mode is                       ....    1
The number of degrees of freedom        ....    6

    -----------------------------------------------------------------
                    Redundant Internal Coordinates


    -----------------------------------------------------------------
         Definition                    Initial Value    Approx d2E/dq
    -----------------------------------------------------------------
      1. B(H   1,N   0)                  1.0200         0.417100   
      2. B(H   2,N   0)                  1.0200         0.417106   
      3. B(H   3,N   0)                  1.0200         0.417091   
      4. A(H   1,N   0,H   3)          109.4717         0.299723   
      5. A(H   2,N   0,H   3)          109.4706         0.299723   
      6. A(H   1,N   0,H   2)          109.4713         0.299724   
      7. I(H   1,H   3,H   2,N   0)    -54.7354         0.005084   
    -----------------------------------------------------------------

Number of atoms                         .... 4
Number of degrees of freedom            .... 7

         *************************************************************
         *                GEOMETRY OPTIMIZATION CYCLE   1            *
         *************************************************************
---------------------------------
CARTESIAN COORDINATES (ANGSTROEM)
---------------------------------
  N     -0.174170    1.009470    0.000000
  H      0.845830    1.009470    0.000000
  H     -0.514170    1.615540    0.746640
  H     -0.514180    0.059820    0.151560

----------------------------
CARTESIAN COORDINATES (A.U.)
----------------------------
  NO LB      ZA    FRAG     MASS         X           Y           Z
   0 N     7.0000    0    14.007   -0.329134    1.907622    0.000000
   1 H     1.0000    0     1.008    1.598387    1.907622    0.000000
   2 H     1.0000    0     1.008   -0.971640    3.052928    1.410945
   3 H     1.0000    0     1.008   -0.971659    0.113043    0.286407

--------------------------------
INTERNAL COORDINATES (ANGSTROEM)
--------------------------------
 N      0   0   0     0.000000000000     0.00000000     0.00000000
 H      1   0   0     1.020000000000     0.00000000     0.00000000
 H      1   2   0     1.019996144355   109.47129721     0.00000000
 H      1   2   3     1.020006056943   109.47169614   240.00041532

---------------------------
INTERNAL COORDINATES (A.U.)
---------------------------
 N      0   0   0     0.000000000000     0.00000000     0.00000000
 H      1   0   0     1.927520656600     0.00000000     0.00000000
 H      1   2   0     1.927513370487   109.47129721     0.00000000
 H      1   2   3     1.927532102563   109.47169614   240.00041532

---------------------
BASIS SET INFORMATION
---------------------
There are 2 groups of distinct atoms

 Group   1 Type N   : 10s4p1d contracted to 3s2p1d pattern {631/31/1}
 Group   2 Type H   : 4s contracted to 2s pattern {31}

Atom   0N    basis set group =>   1
Atom   1H    basis set group =>   2
Atom   2H    basis set group =>   2
Atom   3H    basis set group =>   2

-------------------------
BASIS SET IN INPUT FORMAT
-------------------------

 # Basis set for element : H 
 NewGTO H 
 S 3 
   1      18.7311370000      0.0334945995
   2       2.8253937000      0.2347269467
   3       0.6401217000      0.8137573184
 S 1 
   1       0.1612778000      1.0000000000
  end;

 # Basis set for element : N 
 NewGTO N 
 S 6 
   1    4173.5110000000      0.0018347994
   2     627.4579000000      0.0139949958
   3     142.9021000000      0.0685869792
   4      40.2343300000      0.2322409295
   5      12.8202100000      0.4690698576
   6       4.3904370000      0.3604548906
 S 3 
   1      11.6263580000     -0.1149610229
   2       2.7162800000     -0.1691180337
   3       0.7722180000      1.1458522281
 P 3 
   1      11.6263580000      0.0675800232
   2       2.7162800000      0.3239071114
   3       0.7722180000      0.7408952549
 S 1 
   1       0.2120313000      1.0000000000
 P 1 
   1       0.2120313000      1.0000000000
 D 1 
   1       0.8000000000      1.0000000000
  end;

------------------------------------------------------------------------------
                           ORCA GTO INTEGRAL CALCULATION
------------------------------------------------------------------------------
------------------------------------------------------------------------------
                   ___                                                        
                  /   \      - P O W E R E D   B Y -                         
                 /     \                                                     
                 |  |  |   _    _      __       _____    __    __             
                 |  |  |  | |  | |    /  \     |  _  \  |  |  /  |          
                  \  \/   | |  | |   /    \    | | | |  |  | /  /          
                 / \  \   | |__| |  /  /\  \   | |_| |  |  |/  /          
                |  |  |   |  __  | /  /__\  \  |    /   |      \           
                |  |  |   | |  | | |   __   |  |    \   |  |\   \          
                \     /   | |  | | |  |  |  |  | |\  \  |  | \   \       
                 \___/    |_|  |_| |__|  |__|  |_| \__\ |__|  \__/        
                                                                              
                      - O R C A' S   B I G   F R I E N D -                    
                                      &                                       
                       - I N T E G R A L  F E E D E R -                       
                                                                              
 v1 FN, 2020, v2 2021                                                         
------------------------------------------------------------------------------


Reading SHARK input file result.SHARKINP.tmp ... ok
----------------------
SHARK INTEGRAL PACKAGE
----------------------

Number of atoms                             ...      4
Number of basis functions                   ...     20
Number of shells                            ...     12
Maximum angular momentum                    ...      2
Integral batch strategy                     ... SHARK/LIBINT Hybrid
RI-J (if used) integral strategy            ... SPLIT-RIJ (Revised 2003 algorithm where possible)
Printlevel                                  ...      2
Contraction scheme used                     ... SEGMENTED contraction
Coulomb Range Separation                    ... NOT USED
Exchange Range Separation                   ... NOT USED
Finite Nucleus Model                        ... NOT USED
Auxiliary Coulomb fitting basis             ... NOT available
Auxiliary J/K fitting basis                 ... NOT available
Auxiliary Correlation fitting basis         ... NOT available
Auxiliary 'external' fitting basis          ... NOT available
Integral threshold                          ...     2.500000e-11
Primitive cut-off                           ...     2.500000e-12
Primitive pair pre-selection threshold      ...     2.500000e-12

Calculating pre-screening integrals         ... done (  0.0 sec) Dimension = 12
Organizing shell pair data                  ... done (  0.0 sec)
Shell pair information
Total number of shell pairs                 ...        78
Shell pairs after pre-screening             ...        78
Total number of primitive shell pairs       ...       408
Primitive shell pairs kept                  ...       393
          la=0 lb=0:     45 shell pairs
          la=1 lb=0:     18 shell pairs
          la=1 lb=1:      3 shell pairs
          la=2 lb=0:      9 shell pairs
          la=2 lb=1:      2 shell pairs
          la=2 lb=2:      1 shell pairs

Calculating one electron integrals          ... done (  0.0 sec)
Calculating Nuclear repulsion               ... done (  0.0 sec) ENN=     11.847915112646 Eh

SHARK setup successfully completed in   0.1 seconds

Maximum memory used throughout the entire GTOINT-calculation: 7.5 MB
-------------------------------------------------------------------------------
                                 ORCA SCF
-------------------------------------------------------------------------------

------------
SCF SETTINGS
------------
Hamiltonian:
 Ab initio Hamiltonian  Method          .... Hartree-Fock(GTOs)


General Settings:
 Integral files         IntName         .... result
 Hartree-Fock type      HFTyp           .... RHF
 Total Charge           Charge          ....    0
 Multiplicity           Mult            ....    1
 Number of Electrons    NEL             ....   10
 Basis Dimension        Dim             ....   20
 Nuclear Repulsion      ENuc            ....     11.8479151126 Eh

Convergence Acceleration:
 DIIS                   CNVDIIS         .... on
   Start iteration      DIISMaxIt       ....    12
   Startup error        DIISStart       ....  0.200000
   # of expansion vecs  DIISMaxEq       ....     5
   Bias factor          DIISBfac        ....   1.050
   Max. coefficient     DIISMaxC        ....  10.000
 Trust-Rad. Augm. Hess. CNVTRAH         .... auto
   Auto Start mean grad. ratio tolernc. ....  1.125000
   Auto Start start iteration           ....    20
   Auto Start num. interpolation iter.  ....    10
   Max. Number of Micro iterations      ....    16
   Max. Number of Macro iterations      .... Maxiter - #DIIS iter
   Number of Davidson start vectors     ....     2
   Converg. threshold I  (grad. norm)   ....   1.000e-05
   Converg. threshold II (energy diff.) ....   1.000e-08
   Grad. Scal. Fac. for Micro threshold ....   0.100
   Minimum threshold for Micro iter.    ....   0.010
   NR start threshold (gradient norm)   ....   0.001
   Initial trust radius                 ....   0.400
   Minimum AH scaling param. (alpha)    ....   1.000
   Maximum AH scaling param. (alpha)    .... 1000.000
   Orbital update algorithm             .... Taylor
   White noise on init. David. guess    .... on
   Maximum white noise                  ....   0.010
   Quad. conv. algorithm                .... NR
 SOSCF                  CNVSOSCF        .... on
   Start iteration      SOSCFMaxIt      ....   150
   Startup grad/error   SOSCFStart      ....  0.003300
 Level Shifting         CNVShift        .... on
   Level shift para.    LevelShift      ....    0.2500
   Turn off err/grad.   ShiftErr        ....    0.0010
 Zerner damping         CNVZerner       .... off
 Static damping         CNVDamp         .... on
   Fraction old density DampFac         ....    0.7000
   Max. Damping (<1)    DampMax         ....    0.9800
   Min. Damping (>=0)   DampMin         ....    0.0000
   Turn off err/grad.   DampErr         ....    0.1000
 Fernandez-Rico         CNVRico         .... off

SCF Procedure:
 Maximum # iterations   MaxIter         ....   125
 SCF integral mode      SCFMode         .... Direct
   Integral package                     .... SHARK and LIBINT hybrid scheme
 Reset frequency        DirectResetFreq ....    20
 Integral Threshold     Thresh          ....  2.500e-11 Eh
 Primitive CutOff       TCut            ....  2.500e-12 Eh

Convergence Tolerance:
 Convergence Check Mode ConvCheckMode   .... Total+1el-Energy
 Convergence forced     ConvForced      .... 0
 Energy Change          TolE            ....  1.000e-08 Eh
 1-El. energy change                    ....  1.000e-05 Eh
 Orbital Gradient       TolG            ....  1.000e-05
 Orbital Rotation angle TolX            ....  1.000e-05
 DIIS Error             TolErr          ....  5.000e-07


Diagonalization of the overlap matrix:
Smallest eigenvalue                        ... 4.105e-02
Time for diagonalization                   ...    0.000 sec
Threshold for overlap eigenvalues          ... 1.000e-08
Number of eigenvalues below threshold      ... 0
Time for construction of square roots      ...    0.005 sec
Total time needed                          ...    0.005 sec

----------------------
SHARK INTEGRAL PACKAGE
----------------------

Number of atoms                             ...      4
Number of basis functions                   ...     20
Number of shells                            ...     12
Maximum angular momentum                    ...      2
Integral batch strategy                     ... SHARK/LIBINT Hybrid
RI-J (if used) integral strategy            ... SPLIT-RIJ (Revised 2003 algorithm where possible)
Printlevel                                  ...      2
Contraction scheme used                     ... SEGMENTED contraction
Coulomb Range Separation                    ... NOT USED
Exchange Range Separation                   ... NOT USED
Finite Nucleus Model                        ... NOT USED
Auxiliary Coulomb fitting basis             ... NOT available
Auxiliary J/K fitting basis                 ... NOT available
Auxiliary Correlation fitting basis         ... NOT available
Auxiliary 'external' fitting basis          ... NOT available
Integral threshold                          ...     2.500000e-11
Primitive cut-off                           ...     2.500000e-12
Primitive pair pre-selection threshold      ...     2.500000e-12

Time for model grid setup =    0.015 sec

------------------------------
INITIAL GUESS: MODEL POTENTIAL
------------------------------
Loading Hartree-Fock densities                     ... done
Calculating cut-offs                               ... done
Initializing the effective Hamiltonian             ... done
Setting up the integral package (SHARK)            ... done
Starting the Coulomb interaction                   ...     -> Generating integrals - 
    -> L=0 0 :     0.001 sec done=      1170 skipped=         0 prim-skipped=         0
    -> L=1 0 :     0.000 sec done=       468 skipped=         0 prim-skipped=         0
    -> L=1 1 :     0.000 sec done=        78 skipped=         0 prim-skipped=         0
    -> L=2 0 :     0.000 sec done=       234 skipped=         0 prim-skipped=         0
    -> L=2 1 :     0.000 sec done=        52 skipped=         0 prim-skipped=         0
    -> L=2 2 :     0.000 sec done=        26 skipped=         0 prim-skipped=         0
done (   0.0 sec)
Reading the grid                                   ... done
Mapping shells                                     ... done
Starting the XC term evaluation                    ... done (   0.0 sec)
Transforming the Hamiltonian                       ... done (   0.0 sec)
Diagonalizing the Hamiltonian                      ... done (   0.0 sec)
Back transforming the eigenvectors                 ... done (   0.0 sec)
Now organizing SCF variables                       ... done
                      ------------------
                      INITIAL GUESS DONE (   0.1 sec)
                      ------------------
----------------------
INITIAL GUESS ORBITALS
----------------------
                      0         1         2         3         4         5   
                 -14.06383  -0.91260  -0.54716  -0.54711  -0.37302  -0.00208
                   2.00000   2.00000   2.00000   2.00000   2.00000   0.00000
                  --------  --------  --------  --------  --------  --------
  0N   1s         0.994212 -0.212644 -0.000006 -0.000004  0.055608 -0.120391
  0N   2s         0.037189  0.466516  0.000007 -0.000018 -0.133292  0.263614
  0N   1pz        0.001079  0.086411 -0.237040  0.123100  0.566792  0.155708
  0N   1px        0.000408  0.032698  0.494534  0.194302  0.214584  0.059022
  0N   1py       -0.000412 -0.033087 -0.130109  0.514448 -0.216754 -0.059499
  0N   3s        -0.022330  0.462883  0.000028  0.000047 -0.193857  1.521221
  0N   2pz       -0.002339  0.040714 -0.114491  0.059500  0.376915  0.297247
  0N   2px       -0.000885  0.015410  0.238909  0.093962  0.142668  0.113057
  0N   2py        0.000895 -0.015500 -0.062785  0.248696 -0.144220 -0.113681
  0N   1dz2       0.000000 -0.008646 -0.019778  0.012510  0.013619  0.003910
  0N   1dxz      -0.000000 -0.006634  0.015020  0.002775  0.010512  0.002996
  0N   1dyz      -0.000001  0.006697 -0.009834  0.022287 -0.010572 -0.003085
  0N   1dx2y2     0.000000  0.000024  0.020381  0.019711  0.000010  0.000015
  0N   1dxy      -0.000000  0.002538 -0.002580 -0.009165 -0.004033 -0.001179
  1H   1s        -0.000552  0.124798  0.234102  0.092019  0.057633 -0.098511
  1H   2s         0.004583 -0.010551  0.087933  0.034504  0.024868 -0.839342
  2H   1s        -0.000552  0.124788 -0.196738  0.156736  0.057581 -0.098384
  2H   2s         0.004583 -0.010563 -0.073915  0.058829  0.024835 -0.838397
  3H   1s        -0.000552  0.124811 -0.037328 -0.248767  0.057516 -0.098493
  3H   2s         0.004583 -0.010538 -0.014047 -0.093336  0.024644 -0.838121
                      6         7         8         9        10        11   
                   0.06629   0.06637   0.52688   0.55407   0.55432   0.74375
                   0.00000   0.00000   0.00000   0.00000   0.00000   0.00000
                  --------  --------  --------  --------  --------  --------
  0N   1s        -0.000027 -0.000046 -0.024191  0.000078 -0.000027 -0.000231
  0N   2s         0.000121  0.000103  0.141339 -0.000434 -0.000842  0.000736
  0N   1pz        0.218658 -0.011837 -0.836807  0.161151 -0.156300 -0.414867
  0N   1px       -0.303721 -0.312290 -0.318512 -0.441763 -0.035004  0.547485
  0N   1py        0.270946 -0.340140  0.320038 -0.022785 -0.442643 -0.543372
  0N   3s         0.000199  0.000497  0.178608 -0.000439  0.001987  0.000066
  0N   2pz        0.406103 -0.022301  1.003355 -0.458166  0.447940  0.656543
  0N   2px       -0.563892 -0.580181  0.384189  1.266263  0.099043 -0.864672
  0N   2py        0.503534 -0.632532 -0.383868  0.063677  1.267036  0.858202
  0N   1dz2      -0.005414  0.002893  0.002648  0.053366 -0.077312  0.084232
  0N   1dxz       0.001782 -0.009672  0.001912 -0.019960  0.044042 -0.040933
  0N   1dyz      -0.011515 -0.000901 -0.001594  0.050792 -0.101533  0.091068
  0N   1dx2y2     0.013082  0.018346 -0.000102 -0.173519 -0.060537 -0.067367
  0N   1dxy       0.016567 -0.013052 -0.000897 -0.002986  0.118835 -0.063764
  1H   1s         0.131347  0.135173 -0.001990 -0.673465 -0.052062 -0.416196
  1H   2s         1.036914  1.066272 -0.169060 -0.113302 -0.009998  1.078814
  2H   1s        -0.182704  0.046225  0.000367  0.382086 -0.557930  0.609225
  2H   2s        -1.442468  0.364797 -0.167651  0.065019 -0.093367 -1.591028
  3H   1s         0.051291 -0.181679 -0.000086  0.291743  0.608741 -0.199571
  3H   2s         0.405131 -1.431791 -0.167063  0.049396  0.102344  0.515510
                     12        13        14        15        16        17   
                   0.74379   0.75569   1.04064   1.44075   1.44147   1.76862
                   0.00000   0.00000   0.00000   0.00000   0.00000   0.00000
                  --------  --------  --------  --------  --------  --------
  0N   1s         0.000107 -0.078249  0.013781 -0.000026  0.000040  0.038142
  0N   2s        -0.000450  0.466765 -1.780771  0.000392 -0.001225  0.553159
  0N   1pz       -0.003021  0.118973 -0.110218 -0.004370 -0.002312 -0.009452
  0N   1px       -0.617741  0.042349 -0.042024  0.009284 -0.004084 -0.003459
  0N   1py       -0.620450 -0.043747  0.042773 -0.002325 -0.009962  0.003838
  0N   3s        -0.000104 -0.447497  3.469116 -0.000539  0.002150 -1.510779
  0N   2pz        0.004423  0.114570  0.538784 -0.019239 -0.009578 -0.366659
  0N   2px        0.975946  0.047745  0.204087  0.040210 -0.015326 -0.139051
  0N   2py        0.980101 -0.046747 -0.207370 -0.010738 -0.040695  0.140158
  0N   1dz2       0.015228  0.144510  0.157091  0.462132  0.167025  0.669478
  0N   1dxz      -0.007240  0.111135  0.119588 -0.596020  0.555784  0.512448
  0N   1dyz       0.037730 -0.112075 -0.121978 -0.203709  0.534037 -0.518579
  0N   1dx2y2     0.139295 -0.000070 -0.000723  0.283061  0.089765 -0.001759
  0N   1dxy      -0.068279 -0.042343 -0.046343  0.555523  0.607452 -0.196517
  1H   1s         0.467995 -0.717055 -0.201301 -0.034590  0.014109  0.510553
  1H   2s        -1.216572  0.490351 -0.769414 -0.005179  0.000887  0.192032
  2H   1s         0.125808 -0.720134 -0.201884  0.028339  0.022559  0.510382
  2H   2s        -0.325257  0.499151 -0.768432  0.005024  0.002866  0.191940
  3H   1s        -0.591501 -0.718744 -0.202197  0.005588 -0.035999  0.511100
  3H   2s         1.541092  0.494602 -0.769343  0.000789 -0.005656  0.191315
                     18        19   
                   2.16944   2.16999
                   0.00000   0.00000
                  --------  --------
  0N   1s        -0.000002  0.000007
  0N   2s         0.000638 -0.000238
  0N   1pz        0.000002 -0.029738
  0N   1px       -0.044790  0.038598
  0N   1py       -0.043807 -0.039302
  0N   3s        -0.001243  0.000360
  0N   2pz        0.000914 -0.342533
  0N   2px       -0.514898  0.446307
  0N   2py       -0.507251 -0.454041
  0N   1dz2      -0.100088 -0.664054
  0N   1dxz      -0.014686  0.330981
  0N   1dyz      -0.320961 -0.690381
  0N   1dx2y2    -1.037957  0.465439
  0N   1dxy       0.477686  0.418460
  1H   1s         0.714649 -0.618720
  1H   2s        -0.011430  0.009614
  2H   1s         0.178859  0.928146
  2H   2s        -0.002486 -0.014788
  3H   1s        -0.893052 -0.309372
  3H   2s         0.014593  0.004962
--------------
SCF ITERATIONS
--------------
               ***  Starting incremental Fock matrix formation  ***
===> SHARK/Fock/General/Sym: HFTyp=1 DoJ=1 DoX=1 facj= 2.000 facx=-0.500 NFock=1 NumOp=1 NMat=1 RangeSep=0 GeneralContraction=0 PGCOpt=0
    -> L=0 0 0 0:     0.001 sec done=      1035 (=100.0%) skipped=         0 
    -> L=1 0 0 0:     0.001 sec done=       810 (=100.0%) skipped=         0 
    -> L=1 0 1 0:     0.000 sec done=       171 (=100.0%) skipped=         0 
    -> L=1 1 0 0:     0.000 sec done=       135 (=100.0%) skipped=         0 
    -> L=1 1 1 0:     0.000 sec done=        54 (=100.0%) skipped=         0 
    -> L=1 1 1 1:     0.000 sec done=         6 (=100.0%) skipped=         0 
    -> L=2 0 0 0:     0.000 sec done=       405 (=100.0%) skipped=         0 
    -> RHF LowL loop time =     0.003 sec
    -> L=2 0 1 0:     0.000 sec done=       162 (=100.0%) skipped=         0 
    -> L=2 0 1 1:     0.000 sec done=        27 (=100.0%) skipped=         0 
    -> L=2 0 2 0:     0.000 sec done=        45 (=100.0%) skipped=         0 
    -> L=2 1 0 0:     0.000 sec done=        90 (=100.0%) skipped=         0 
    -> L=2 1 1 0:     0.000 sec done=        36 (=100.0%) skipped=         0 
    -> L=2 1 2 0:     0.000 sec done=        18 (=100.0%) skipped=         0 
    -> L=2 2 0 0:     0.000 sec done=        45 (=100.0%) skipped=         0 
    ->Total SHARK integral loop time =    0.002 sec
    -> L=0 1 2 2:     0.000 sec done=        18 (=100.0%) skipped=         0 
    -> L=0 2 2 2:     0.000 sec done=         9 (=100.0%) skipped=         0 
    -> L=1 1 1 2:     0.000 sec done=         6 (=100.0%) skipped=         0 
    -> L=1 1 2 2:     0.000 sec done=         3 (=100.0%) skipped=         0 
    -> L=1 2 1 2:     0.000 sec done=         3 (=100.0%) skipped=         0 
    -> L=1 2 2 2:     0.000 sec done=         2 (=100.0%) skipped=         0 
    -> L=2 2 2 2:     0.000 sec done=         1 (=100.0%) skipped=         0 
    ->Total LIBINT loop time =    0.001 sec

                         ----------------------------
                         !        ITERATION     0   !
                         ----------------------------
   Total Energy        :     -56.052037641370 Eh
   Energy Change       :     -56.052037641370 Eh
   MAX-DP              :       0.080733109475
   RMS-DP              :       0.008306596085
   Actual Damping      :       0.7000
   Actual Level Shift  :       0.2500 Eh

===> SHARK/Fock/General/Sym: HFTyp=1 DoJ=1 DoX=1 facj= 2.000 facx=-0.500 NFock=1 NumOp=1 NMat=1 RangeSep=0 GeneralContraction=0 PGCOpt=0
    -> L=0 0 0 0:     0.001 sec done=      1035 (=100.0%) skipped=         0 
    -> L=1 0 0 0:     0.001 sec done=       810 (=100.0%) skipped=         0 
    -> L=1 0 1 0:     0.000 sec done=       171 (=100.0%) skipped=         0 
    -> L=1 1 0 0:     0.000 sec done=       135 (=100.0%) skipped=         0 
    -> L=1 1 1 0:     0.000 sec done=        54 (=100.0%) skipped=         0 
    -> L=1 1 1 1:     0.000 sec done=         6 (=100.0%) skipped=         0 
    -> L=2 0 0 0:     0.000 sec done=       405 (=100.0%) skipped=         0 
    -> RHF LowL loop time =     0.003 sec
    -> L=2 0 1 0:     0.000 sec done=       162 (=100.0%) skipped=         0 
    -> L=2 0 1 1:     0.000 sec done=        27 (=100.0%) skipped=         0 
    -> L=2 0 2 0:     0.000 sec done=        45 (=100.0%) skipped=         0 
    -> L=2 1 0 0:     0.000 sec done=        90 (=100.0%) skipped=         0 
    -> L=2 1 1 0:     0.000 sec done=        36 (=100.0%) skipped=         0 
    -> L=2 1 2 0:     0.000 sec done=        18 (=100.0%) skipped=         0 
    -> L=2 2 0 0:     0.000 sec done=        45 (=100.0%) skipped=         0 
    ->Total SHARK integral loop time =    0.001 sec
    -> L=0 1 2 2:     0.000 sec done=        18 (=100.0%) skipped=         0 
    -> L=0 2 2 2:     0.000 sec done=         9 (=100.0%) skipped=         0 
    -> L=1 1 1 2:     0.000 sec done=         6 (=100.0%) skipped=         0 
    -> L=1 1 2 2:     0.000 sec done=         3 (=100.0%) skipped=         0 
    -> L=1 2 1 2:     0.000 sec done=         3 (=100.0%) skipped=         0 
    -> L=1 2 2 2:     0.000 sec done=         2 (=100.0%) skipped=         0 
    -> L=2 2 2 2:     0.000 sec done=         1 (=100.0%) skipped=         0 
    ->Total LIBINT loop time =    0.001 sec

                         ----------------------------
                         !        ITERATION     1   !
                         ----------------------------
   Total Energy        :     -56.102741976920 Eh
   Energy Change       :      -0.050704335550 Eh
   MAX-DP              :       0.057560094343
   RMS-DP              :       0.005959973225
   Actual Damping      :       0.7000
   Actual Level Shift  :       0.2500 Eh

===> SHARK/Fock/General/Sym: HFTyp=1 DoJ=1 DoX=1 facj= 2.000 facx=-0.500 NFock=1 NumOp=1 NMat=1 RangeSep=0 GeneralContraction=0 PGCOpt=0
    -> L=0 0 0 0:     0.001 sec done=      1035 (=100.0%) skipped=         0 
    -> L=1 0 0 0:     0.001 sec done=       810 (=100.0%) skipped=         0 
    -> L=1 0 1 0:     0.000 sec done=       171 (=100.0%) skipped=         0 
    -> L=1 1 0 0:     0.000 sec done=       135 (=100.0%) skipped=         0 
    -> L=1 1 1 0:     0.000 sec done=        54 (=100.0%) skipped=         0 
    -> L=1 1 1 1:     0.000 sec done=         6 (=100.0%) skipped=         0 
    -> L=2 0 0 0:     0.000 sec done=       405 (=100.0%) skipped=         0 
    -> RHF LowL loop time =     0.003 sec
    -> L=2 0 1 0:     0.000 sec done=       162 (=100.0%) skipped=         0 
    -> L=2 0 1 1:     0.000 sec done=        27 (=100.0%) skipped=         0 
    -> L=2 0 2 0:     0.000 sec done=        45 (=100.0%) skipped=         0 
    -> L=2 1 0 0:     0.000 sec done=        90 (=100.0%) skipped=         0 
    -> L=2 1 1 0:     0.000 sec done=        36 (=100.0%) skipped=         0 
    -> L=2 1 2 0:     0.000 sec done=        18 (=100.0%) skipped=         0 
    -> L=2 2 0 0:     0.000 sec done=        45 (=100.0%) skipped=         0 
    ->Total SHARK integral loop time =    0.001 sec
    -> L=0 1 2 2:     0.000 sec done=        18 (=100.0%) skipped=         0 
    -> L=0 2 2 2:     0.000 sec done=         9 (=100.0%) skipped=         0 
    -> L=1 1 1 2:     0.000 sec done=         6 (=100.0%) skipped=         0 
    -> L=1 1 2 2:     0.000 sec done=         3 (=100.0%) skipped=         0 
    -> L=1 2 1 2:     0.000 sec done=         3 (=100.0%) skipped=         0 
    -> L=1 2 2 2:     0.000 sec done=         2 (=100.0%) skipped=         0 
    -> L=2 2 2 2:     0.000 sec done=         1 (=100.0%) skipped=         0 
    ->Total LIBINT loop time =    0.001 sec
                               ***Turning on DIIS***

                         ----------------------------
                         !        ITERATION     2   !
                         ----------------------------
   Total Energy        :     -56.130487396482 Eh
   Energy Change       :      -0.027745419562 Eh
   MAX-DP              :       0.033051017262
   RMS-DP              :       0.003453923229
   Actual Damping      :       0.7000
   Actual Level Shift  :       0.2500 Eh
   DIIS-Error          :       0.107862580974

===> SHARK/Fock/General/Sym: HFTyp=1 DoJ=1 DoX=1 facj= 2.000 facx=-0.500 NFock=1 NumOp=1 NMat=1 RangeSep=0 GeneralContraction=0 PGCOpt=0
    -> L=0 0 0 0:     0.001 sec done=      1035 (=100.0%) skipped=         0 
    -> L=1 0 0 0:     0.001 sec done=       810 (=100.0%) skipped=         0 
    -> L=1 0 1 0:     0.000 sec done=       171 (=100.0%) skipped=         0 
    -> L=1 1 0 0:     0.000 sec done=       135 (=100.0%) skipped=         0 
    -> L=1 1 1 0:     0.000 sec done=        54 (=100.0%) skipped=         0 
    -> L=1 1 1 1:     0.000 sec done=         6 (=100.0%) skipped=         0 
    -> L=2 0 0 0:     0.000 sec done=       405 (=100.0%) skipped=         0 
    -> RHF LowL loop time =     0.003 sec
    -> L=2 0 1 0:     0.000 sec done=       162 (=100.0%) skipped=         0 
    -> L=2 0 1 1:     0.000 sec done=        27 (=100.0%) skipped=         0 
    -> L=2 0 2 0:     0.000 sec done=        45 (=100.0%) skipped=         0 
    -> L=2 1 0 0:     0.000 sec done=        90 (=100.0%) skipped=         0 
    -> L=2 1 1 0:     0.000 sec done=        36 (=100.0%) skipped=         0 
    -> L=2 1 2 0:     0.000 sec done=        18 (=100.0%) skipped=         0 
    -> L=2 2 0 0:     0.000 sec done=        45 (=100.0%) skipped=         0 
    ->Total SHARK integral loop time =    0.001 sec
    -> L=0 1 2 2:     0.000 sec done=        18 (=100.0%) skipped=         0 
    -> L=0 2 2 2:     0.000 sec done=         9 (=100.0%) skipped=         0 
    -> L=1 1 1 2:     0.000 sec done=         6 (=100.0%) skipped=         0 
    -> L=1 1 2 2:     0.000 sec done=         3 (=100.0%) skipped=         0 
    -> L=1 2 1 2:     0.000 sec done=         3 (=100.0%) skipped=         0 
    -> L=1 2 2 2:     0.000 sec done=         2 (=100.0%) skipped=         0 
    -> L=2 2 2 2:     0.000 sec done=         1 (=100.0%) skipped=         0 
    ->Total LIBINT loop time =    0.001 sec

                         ----------------------------
                         !        ITERATION     3   !
                         ----------------------------
   Total Energy        :     -56.324617370122 Eh
   Energy Change       :      -0.194129973640 Eh
   MAX-DP              :       0.046237192497
   RMS-DP              :       0.005051438099
   Actual Damping      :       0.0000
   Actual Level Shift  :       0.2500 Eh
   DIIS-Error          :       0.057803915893
   DIIS coefficients:
     -0.98318   1.98318

===> SHARK/Fock/General/Sym: HFTyp=1 DoJ=1 DoX=1 facj= 2.000 facx=-0.500 NFock=1 NumOp=1 NMat=1 RangeSep=0 GeneralContraction=0 PGCOpt=0
    -> L=0 0 0 0:     0.001 sec done=      1035 (=100.0%) skipped=         0 
    -> L=1 0 0 0:     0.001 sec done=       810 (=100.0%) skipped=         0 
    -> L=1 0 1 0:     0.000 sec done=       171 (=100.0%) skipped=         0 
    -> L=1 1 0 0:     0.000 sec done=       135 (=100.0%) skipped=         0 
    -> L=1 1 1 0:     0.000 sec done=        54 (=100.0%) skipped=         0 
    -> L=1 1 1 1:     0.000 sec done=         6 (=100.0%) skipped=         0 
    -> L=2 0 0 0:     0.000 sec done=       405 (=100.0%) skipped=         0 
    -> RHF LowL loop time =     0.003 sec
    -> L=2 0 1 0:     0.000 sec done=       162 (=100.0%) skipped=         0 
    -> L=2 0 1 1:     0.000 sec done=        27 (=100.0%) skipped=         0 
    -> L=2 0 2 0:     0.000 sec done=        45 (=100.0%) skipped=         0 
    -> L=2 1 0 0:     0.000 sec done=        90 (=100.0%) skipped=         0 
    -> L=2 1 1 0:     0.000 sec done=        36 (=100.0%) skipped=         0 
    -> L=2 1 2 0:     0.000 sec done=        18 (=100.0%) skipped=         0 
    -> L=2 2 0 0:     0.000 sec done=        45 (=100.0%) skipped=         0 
    ->Total SHARK integral loop time =    0.001 sec
    -> L=0 1 2 2:     0.000 sec done=        18 (=100.0%) skipped=         0 
    -> L=0 2 2 2:     0.000 sec done=         9 (=100.0%) skipped=         0 
    -> L=1 1 1 2:     0.000 sec done=         6 (=100.0%) skipped=         0 
    -> L=1 1 2 2:     0.000 sec done=         3 (=100.0%) skipped=         0 
    -> L=1 2 1 2:     0.000 sec done=         3 (=100.0%) skipped=         0 
    -> L=1 2 2 2:     0.000 sec done=         2 (=100.0%) skipped=         0 
    -> L=2 2 2 2:     0.000 sec done=         1 (=100.0%) skipped=         0 
    ->Total LIBINT loop time =    0.001 sec

                         ----------------------------
                         !        ITERATION     4   !
                         ----------------------------
   Total Energy        :     -56.153722648531 Eh
   Energy Change       :       0.170894721591 Eh
   MAX-DP              :       0.008513262212
   RMS-DP              :       0.000942444358
   Actual Damping      :       0.0000
   Actual Level Shift  :       0.2500 Eh
   DIIS-Error          :       0.013699494603
   DIIS coefficients:
      0.08615  -0.03248   0.94633

===> SHARK/Fock/General/Sym: HFTyp=1 DoJ=1 DoX=1 facj= 2.000 facx=-0.500 NFock=1 NumOp=1 NMat=1 RangeSep=0 GeneralContraction=0 PGCOpt=0
    -> L=0 0 0 0:     0.001 sec done=      1035 (=100.0%) skipped=         0 
    -> L=1 0 0 0:     0.001 sec done=       810 (=100.0%) skipped=         0 
    -> L=1 0 1 0:     0.000 sec done=       171 (=100.0%) skipped=         0 
    -> L=1 1 0 0:     0.000 sec done=       135 (=100.0%) skipped=         0 
    -> L=1 1 1 0:     0.000 sec done=        54 (=100.0%) skipped=         0 
    -> L=1 1 1 1:     0.000 sec done=         6 (=100.0%) skipped=         0 
    -> L=2 0 0 0:     0.000 sec done=       405 (=100.0%) skipped=         0 
    -> RHF LowL loop time =     0.003 sec
    -> L=2 0 1 0:     0.000 sec done=       162 (=100.0%) skipped=         0 
    -> L=2 0 1 1:     0.000 sec done=        27 (=100.0%) skipped=         0 
    -> L=2 0 2 0:     0.000 sec done=        45 (=100.0%) skipped=         0 
    -> L=2 1 0 0:     0.000 sec done=        90 (=100.0%) skipped=         0 
    -> L=2 1 1 0:     0.000 sec done=        36 (=100.0%) skipped=         0 
    -> L=2 1 2 0:     0.000 sec done=        18 (=100.0%) skipped=         0 
    -> L=2 2 0 0:     0.000 sec done=        45 (=100.0%) skipped=         0 
    ->Total SHARK integral loop time =    0.001 sec
    -> L=0 1 2 2:     0.000 sec done=        18 (=100.0%) skipped=         0 
    -> L=0 2 2 2:     0.000 sec done=         9 (=100.0%) skipped=         0 
    -> L=1 1 1 2:     0.000 sec done=         6 (=100.0%) skipped=         0 
    -> L=1 1 2 2:     0.000 sec done=         3 (=100.0%) skipped=         0 
    -> L=1 2 1 2:     0.000 sec done=         3 (=100.0%) skipped=         0 
    -> L=1 2 2 2:     0.000 sec done=         2 (=100.0%) skipped=         0 
    -> L=2 2 2 2:     0.000 sec done=         1 (=100.0%) skipped=         0 
    ->Total LIBINT loop time =    0.001 sec
                      *** Initiating the SOSCF procedure ***
                           *** Shutting down DIIS ***
                      *** Re-Reading the Fockian *** 
                      *** Removing any level shift *** 

                         ----------------------------
                         !        ITERATION     5   !
                         ----------------------------
   Total Energy        :     -56.182930953376 Eh
   Energy Change       :      -0.029208304845 Eh
   MAX-DP              :       0.002254129896
   RMS-DP              :       0.000280038611
   Orbital gradient    :       0.001521810931
   Orbital Rotation    :       0.001521810931
   Actual Damping      :       0.0000

               *** Restarting incremental Fock matrix formation ***
===> SHARK/Fock/General/Sym: HFTyp=1 DoJ=1 DoX=1 facj= 2.000 facx=-0.500 NFock=1 NumOp=1 NMat=1 RangeSep=0 GeneralContraction=0 PGCOpt=0
    -> L=0 0 0 0:     0.001 sec done=      1035 (=100.0%) skipped=         0 
    -> L=1 0 0 0:     0.001 sec done=       810 (=100.0%) skipped=         0 
    -> L=1 0 1 0:     0.000 sec done=       171 (=100.0%) skipped=         0 
    -> L=1 1 0 0:     0.000 sec done=       135 (=100.0%) skipped=         0 
    -> L=1 1 1 0:     0.000 sec done=        54 (=100.0%) skipped=         0 
    -> L=1 1 1 1:     0.000 sec done=         6 (=100.0%) skipped=         0 
    -> L=2 0 0 0:     0.000 sec done=       405 (=100.0%) skipped=         0 
    -> RHF LowL loop time =     0.003 sec
    -> L=2 0 1 0:     0.000 sec done=       162 (=100.0%) skipped=         0 
    -> L=2 0 1 1:     0.000 sec done=        27 (=100.0%) skipped=         0 
    -> L=2 0 2 0:     0.000 sec done=        45 (=100.0%) skipped=         0 
    -> L=2 1 0 0:     0.000 sec done=        90 (=100.0%) skipped=         0 
    -> L=2 1 1 0:     0.000 sec done=        36 (=100.0%) skipped=         0 
    -> L=2 1 2 0:     0.000 sec done=        18 (=100.0%) skipped=         0 
    -> L=2 2 0 0:     0.000 sec done=        45 (=100.0%) skipped=         0 
    ->Total SHARK integral loop time =    0.001 sec
    -> L=0 1 2 2:     0.000 sec done=        18 (=100.0%) skipped=         0 
    -> L=0 2 2 2:     0.000 sec done=         9 (=100.0%) skipped=         0 
    -> L=1 1 1 2:     0.000 sec done=         6 (=100.0%) skipped=         0 
    -> L=1 1 2 2:     0.000 sec done=         3 (=100.0%) skipped=         0 
    -> L=1 2 1 2:     0.000 sec done=         3 (=100.0%) skipped=         0 
    -> L=1 2 2 2:     0.000 sec done=         2 (=100.0%) skipped=         0 
    -> L=2 2 2 2:     0.000 sec done=         1 (=100.0%) skipped=         0 
    ->Total LIBINT loop time =    0.001 sec

                         ----------------------------
                         !        ITERATION     6   !
                         ----------------------------
   Total Energy        :     -56.182327191921 Eh
   Energy Change       :       0.000603761454 Eh
   MAX-DP              :       0.001503303923
   RMS-DP              :       0.000193450973
   Orbital gradient    :       0.000594755631
   Orbital Rotation    :       0.000937814850
   Actual Damping      :       0.0000

===> SHARK/Fock/General/Sym: HFTyp=1 DoJ=1 DoX=1 facj= 2.000 facx=-0.500 NFock=1 NumOp=1 NMat=1 RangeSep=0 GeneralContraction=0 PGCOpt=0
    -> L=0 0 0 0:     0.001 sec done=      1035 (=100.0%) skipped=         0 
    -> L=1 0 0 0:     0.001 sec done=       810 (=100.0%) skipped=         0 
    -> L=1 0 1 0:     0.000 sec done=       171 (=100.0%) skipped=         0 
    -> L=1 1 0 0:     0.000 sec done=       135 (=100.0%) skipped=         0 
    -> L=1 1 1 0:     0.000 sec done=        54 (=100.0%) skipped=         0 
    -> L=1 1 1 1:     0.000 sec done=         6 (=100.0%) skipped=         0 
    -> L=2 0 0 0:     0.000 sec done=       405 (=100.0%) skipped=         0 
    -> RHF LowL loop time =     0.003 sec
    -> L=2 0 1 0:     0.000 sec done=       162 (=100.0%) skipped=         0 
    -> L=2 0 1 1:     0.000 sec done=        27 (=100.0%) skipped=         0 
    -> L=2 0 2 0:     0.000 sec done=        45 (=100.0%) skipped=         0 
    -> L=2 1 0 0:     0.000 sec done=        90 (=100.0%) skipped=         0 
    -> L=2 1 1 0:     0.000 sec done=        36 (=100.0%) skipped=         0 
    -> L=2 1 2 0:     0.000 sec done=        18 (=100.0%) skipped=         0 
    -> L=2 2 0 0:     0.000 sec done=        45 (=100.0%) skipped=         0 
    ->Total SHARK integral loop time =    0.001 sec
    -> L=0 1 2 2:     0.000 sec done=        18 (=100.0%) skipped=         0 
    -> L=0 2 2 2:     0.000 sec done=         9 (=100.0%) skipped=         0 
    -> L=1 1 1 2:     0.000 sec done=         6 (=100.0%) skipped=         0 
    -> L=1 1 2 2:     0.000 sec done=         3 (=100.0%) skipped=         0 
    -> L=1 2 1 2:     0.000 sec done=         3 (=100.0%) skipped=         0 
    -> L=1 2 2 2:     0.000 sec done=         2 (=100.0%) skipped=         0 
    -> L=2 2 2 2:     0.000 sec done=         1 (=100.0%) skipped=         0 
    ->Total LIBINT loop time =    0.001 sec

                         ----------------------------
                         !        ITERATION     7   !
                         ----------------------------
   Total Energy        :     -56.182329929135 Eh
   Energy Change       :      -0.000002737213 Eh
   MAX-DP              :       0.001163143938
   RMS-DP              :       0.000147438391
   Orbital gradient    :       0.000269625323
   Orbital Rotation    :       0.000754518324
   Actual Damping      :       0.0000

===> SHARK/Fock/General/Sym: HFTyp=1 DoJ=1 DoX=1 facj= 2.000 facx=-0.500 NFock=1 NumOp=1 NMat=1 RangeSep=0 GeneralContraction=0 PGCOpt=0
    -> L=0 0 0 0:     0.001 sec done=      1035 (=100.0%) skipped=         0 
    -> L=1 0 0 0:     0.001 sec done=       810 (=100.0%) skipped=         0 
    -> L=1 0 1 0:     0.000 sec done=       171 (=100.0%) skipped=         0 
    -> L=1 1 0 0:     0.000 sec done=       135 (=100.0%) skipped=         0 
    -> L=1 1 1 0:     0.000 sec done=        54 (=100.0%) skipped=         0 
    -> L=1 1 1 1:     0.000 sec done=         6 (=100.0%) skipped=         0 
    -> L=2 0 0 0:     0.000 sec done=       405 (=100.0%) skipped=         0 
    -> RHF LowL loop time =     0.003 sec
    -> L=2 0 1 0:     0.000 sec done=       162 (=100.0%) skipped=         0 
    -> L=2 0 1 1:     0.000 sec done=        27 (=100.0%) skipped=         0 
    -> L=2 0 2 0:     0.000 sec done=        45 (=100.0%) skipped=         0 
    -> L=2 1 0 0:     0.000 sec done=        90 (=100.0%) skipped=         0 
    -> L=2 1 1 0:     0.000 sec done=        36 (=100.0%) skipped=         0 
    -> L=2 1 2 0:     0.000 sec done=        18 (=100.0%) skipped=         0 
    -> L=2 2 0 0:     0.000 sec done=        45 (=100.0%) skipped=         0 
    ->Total SHARK integral loop time =    0.001 sec
    -> L=0 1 2 2:     0.000 sec done=        18 (=100.0%) skipped=         0 
    -> L=0 2 2 2:     0.000 sec done=         9 (=100.0%) skipped=         0 
    -> L=1 1 1 2:     0.000 sec done=         6 (=100.0%) skipped=         0 
    -> L=1 1 2 2:     0.000 sec done=         3 (=100.0%) skipped=         0 
    -> L=1 2 1 2:     0.000 sec done=         3 (=100.0%) skipped=         0 
    -> L=1 2 2 2:     0.000 sec done=         2 (=100.0%) skipped=         0 
    -> L=2 2 2 2:     0.000 sec done=         1 (=100.0%) skipped=         0 
    ->Total LIBINT loop time =    0.001 sec

                         ----------------------------
                         !        ITERATION     8   !
                         ----------------------------
   Total Energy        :     -56.182330540619 Eh
   Energy Change       :      -0.000000611484 Eh
   MAX-DP              :       0.000113033003
   RMS-DP              :       0.000010956089
   Orbital gradient    :       0.000078399648
   Orbital Rotation    :       0.000051038859
   Actual Damping      :       0.0000

===> SHARK/Fock/General/Sym: HFTyp=1 DoJ=1 DoX=1 facj= 2.000 facx=-0.500 NFock=1 NumOp=1 NMat=1 RangeSep=0 GeneralContraction=0 PGCOpt=0
    -> L=0 0 0 0:     0.001 sec done=      1035 (=100.0%) skipped=         0 
    -> L=1 0 0 0:     0.001 sec done=       810 (=100.0%) skipped=         0 
    -> L=1 0 1 0:     0.000 sec done=       171 (=100.0%) skipped=         0 
    -> L=1 1 0 0:     0.000 sec done=       135 (=100.0%) skipped=         0 
    -> L=1 1 1 0:     0.000 sec done=        54 (=100.0%) skipped=         0 
    -> L=1 1 1 1:     0.000 sec done=         6 (=100.0%) skipped=         0 
    -> L=2 0 0 0:     0.000 sec done=       405 (=100.0%) skipped=         0 
    -> RHF LowL loop time =     0.003 sec
    -> L=2 0 1 0:     0.000 sec done=       162 (=100.0%) skipped=         0 
    -> L=2 0 1 1:     0.000 sec done=        27 (=100.0%) skipped=         0 
    -> L=2 0 2 0:     0.000 sec done=        45 (=100.0%) skipped=         0 
    -> L=2 1 0 0:     0.000 sec done=        90 (=100.0%) skipped=         0 
    -> L=2 1 1 0:     0.000 sec done=        36 (=100.0%) skipped=         0 
    -> L=2 1 2 0:     0.000 sec done=        18 (=100.0%) skipped=         0 
    -> L=2 2 0 0:     0.000 sec done=        45 (=100.0%) skipped=         0 
    ->Total SHARK integral loop time =    0.001 sec
    -> L=0 1 2 2:     0.000 sec done=        18 (=100.0%) skipped=         0 
    -> L=0 2 2 2:     0.000 sec done=         9 (=100.0%) skipped=         0 
    -> L=1 1 1 2:     0.000 sec done=         6 (=100.0%) skipped=         0 
    -> L=1 1 2 2:     0.000 sec done=         3 (=100.0%) skipped=         0 
    -> L=1 2 1 2:     0.000 sec done=         3 (=100.0%) skipped=         0 
    -> L=1 2 2 2:     0.000 sec done=         2 (=100.0%) skipped=         0 
    -> L=2 2 2 2:     0.000 sec done=         1 (=100.0%) skipped=         0 
    ->Total LIBINT loop time =    0.001 sec

                         ----------------------------
                         !        ITERATION     9   !
                         ----------------------------
   Total Energy        :     -56.182330552975 Eh
   Energy Change       :      -0.000000012357 Eh
   MAX-DP              :       0.000023104882
   RMS-DP              :       0.000002949408
   Orbital gradient    :       0.000022743887
   Orbital Rotation    :       0.000013846988
   Actual Damping      :       0.0000

===> SHARK/Fock/General/Sym: HFTyp=1 DoJ=1 DoX=1 facj= 2.000 facx=-0.500 NFock=1 NumOp=1 NMat=1 RangeSep=0 GeneralContraction=0 PGCOpt=0
    -> L=0 0 0 0:     0.001 sec done=      1035 (=100.0%) skipped=         0 
    -> L=1 0 0 0:     0.001 sec done=       810 (=100.0%) skipped=         0 
    -> L=1 0 1 0:     0.000 sec done=       171 (=100.0%) skipped=         0 
    -> L=1 1 0 0:     0.000 sec done=       135 (=100.0%) skipped=         0 
    -> L=1 1 1 0:     0.000 sec done=        54 (=100.0%) skipped=         0 
    -> L=1 1 1 1:     0.000 sec done=         6 (=100.0%) skipped=         0 
    -> L=2 0 0 0:     0.000 sec done=       405 (=100.0%) skipped=         0 
    -> RHF LowL loop time =     0.003 sec
    -> L=2 0 1 0:     0.000 sec done=       162 (=100.0%) skipped=         0 
    -> L=2 0 1 1:     0.000 sec done=        27 (=100.0%) skipped=         0 
    -> L=2 0 2 0:     0.000 sec done=        45 (=100.0%) skipped=         0 
    -> L=2 1 0 0:     0.000 sec done=        90 (=100.0%) skipped=         0 
    -> L=2 1 1 0:     0.000 sec done=        36 (=100.0%) skipped=         0 
    -> L=2 1 2 0:     0.000 sec done=        18 (=100.0%) skipped=         0 
    -> L=2 2 0 0:     0.000 sec done=        45 (=100.0%) skipped=         0 
    ->Total SHARK integral loop time =    0.001 sec
    -> L=0 1 2 2:     0.000 sec done=        18 (=100.0%) skipped=         0 
    -> L=0 2 2 2:     0.000 sec done=         9 (=100.0%) skipped=         0 
    -> L=1 1 1 2:     0.000 sec done=         6 (=100.0%) skipped=         0 
    -> L=1 1 2 2:     0.000 sec done=         3 (=100.0%) skipped=         0 
    -> L=1 2 1 2:     0.000 sec done=         3 (=100.0%) skipped=         0 
    -> L=1 2 2 2:     0.000 sec done=         2 (=100.0%) skipped=         0 
    -> L=2 2 2 2:     0.000 sec done=         1 (=100.0%) skipped=         0 
    ->Total LIBINT loop time =    0.001 sec

                         ----------------------------
                         !        ITERATION    10   !
                         ----------------------------
   Total Energy        :     -56.182330555800 Eh
   Energy Change       :      -0.000000002824 Eh
   MAX-DP              :       0.000010827080
   RMS-DP              :       0.000001886986
   Orbital gradient    :       0.000004530999
   Orbital Rotation    :       0.000009386635
   Actual Damping      :       0.0000

===> SHARK/Fock/General/Sym: HFTyp=1 DoJ=1 DoX=1 facj= 2.000 facx=-0.500 NFock=1 NumOp=1 NMat=1 RangeSep=0 GeneralContraction=0 PGCOpt=0
    -> L=0 0 0 0:     0.001 sec done=      1035 (=100.0%) skipped=         0 
    -> L=1 0 0 0:     0.001 sec done=       810 (=100.0%) skipped=         0 
    -> L=1 0 1 0:     0.000 sec done=       171 (=100.0%) skipped=         0 
    -> L=1 1 0 0:     0.000 sec done=       135 (=100.0%) skipped=         0 
    -> L=1 1 1 0:     0.000 sec done=        54 (=100.0%) skipped=         0 
    -> L=1 1 1 1:     0.000 sec done=         6 (=100.0%) skipped=         0 
    -> L=2 0 0 0:     0.000 sec done=       405 (=100.0%) skipped=         0 
    -> RHF LowL loop time =     0.003 sec
    -> L=2 0 1 0:     0.000 sec done=       162 (=100.0%) skipped=         0 
    -> L=2 0 1 1:     0.000 sec done=        27 (=100.0%) skipped=         0 
    -> L=2 0 2 0:     0.000 sec done=        45 (=100.0%) skipped=         0 
    -> L=2 1 0 0:     0.000 sec done=        90 (=100.0%) skipped=         0 
    -> L=2 1 1 0:     0.000 sec done=        36 (=100.0%) skipped=         0 
    -> L=2 1 2 0:     0.000 sec done=        18 (=100.0%) skipped=         0 
    -> L=2 2 0 0:     0.000 sec done=        45 (=100.0%) skipped=         0 
    ->Total SHARK integral loop time =    0.001 sec
    -> L=0 1 2 2:     0.000 sec done=        18 (=100.0%) skipped=         0 
    -> L=0 2 2 2:     0.000 sec done=         9 (=100.0%) skipped=         0 
    -> L=1 1 1 2:     0.000 sec done=         6 (=100.0%) skipped=         0 
    -> L=1 1 2 2:     0.000 sec done=         3 (=100.0%) skipped=         0 
    -> L=1 2 1 2:     0.000 sec done=         3 (=100.0%) skipped=         0 
    -> L=1 2 2 2:     0.000 sec done=         2 (=100.0%) skipped=         0 
    -> L=2 2 2 2:     0.000 sec done=         1 (=100.0%) skipped=         0 
    ->Total LIBINT loop time =    0.001 sec
                 **** Energy Check signals convergence ****
              ***Rediagonalizing the Fockian in SOSCF/NRSCF***

               *****************************************************
               *                     SUCCESS                       *
               *           SCF CONVERGED AFTER  11 CYCLES          *
               *****************************************************


----------------
TOTAL SCF ENERGY
----------------

Total Energy       :          -56.18233056 Eh           -1528.79894 eV

Components:
Nuclear Repulsion  :           11.84791511 Eh             322.39816 eV
Electronic Energy  :          -68.03024567 Eh           -1851.19710 eV
One Electron Energy:          -99.42739765 Eh           -2705.55704 eV
Two Electron Energy:           31.39715198 Eh             854.35994 eV

Virial components:
Potential Energy   :         -112.30090490 Eh           -3055.86298 eV
Kinetic Energy     :           56.11857435 Eh            1527.06404 eV
Virial Ratio       :            2.00113610


---------------
SCF CONVERGENCE
---------------

  Last Energy change         ...   -2.8069e-10  Tolerance :   1.0000e-08
  Last MAX-Density change    ...    2.5671e-06  Tolerance :   1.0000e-07
  Last RMS-Density change    ...    2.2059e-07  Tolerance :   5.0000e-09
  Last Orbital Gradient      ...    7.2091e-07  Tolerance :   1.0000e-05
  Last Orbital Rotation      ...    8.7799e-07  Tolerance :   1.0000e-05

             **** THE GBW FILE WAS UPDATED (result.gbw) ****
             **** DENSITY result.scfp WAS UPDATED ****
             **** ENERGY FILE WAS UPDATED (result.en.tmp) ****
             **** THE GBW FILE WAS UPDATED (result.gbw) ****
             **** DENSITY result.scfp WAS UPDATED ****
----------------
ORBITAL ENERGIES
----------------

  NO   OCC          E(Eh)            E(eV) 
   0   2.0000     -15.532990      -422.6741 
   1   2.0000      -1.126195       -30.6453 
   2   2.0000      -0.622786       -16.9469 
   3   2.0000      -0.622783       -16.9468 
   4   2.0000      -0.411792       -11.2054 
   5   0.0000       0.222582         6.0568 
   6   0.0000       0.321468         8.7476 
   7   0.0000       0.321469         8.7476 
   8   0.0000       0.907729        24.7006 
   9   0.0000       0.907734        24.7007 
  10   0.0000       0.974270        26.5112 
  11   0.0000       1.170804        31.8592 
  12   0.0000       1.220495        33.2113 
  13   0.0000       1.220499        33.2115 
  14   0.0000       1.460803        39.7505 
  15   0.0000       1.971014        53.6340 
  16   0.0000       1.971016        53.6341 
  17   0.0000       2.311535        62.9001 
  18   0.0000       2.737465        74.4902 
  19   0.0000       2.737475        74.4905 
------------------
MOLECULAR ORBITALS
------------------
                      0         1         2         3         4         5   
                 -15.53299  -1.12620  -0.62279  -0.62278  -0.41179   0.22258
                   2.00000   2.00000   2.00000   2.00000   2.00000   0.00000
                  --------  --------  --------  --------  --------  --------
  0N   1s         0.996023  0.201140  0.000001  0.000001 -0.056344 -0.116102
  0N   2s         0.023027 -0.413662 -0.000001 -0.000001  0.135629  0.113044
  0N   1pz        0.001414 -0.068225  0.182352  0.126617 -0.493000  0.122003
  0N   1px        0.000535 -0.025825 -0.428258  0.108017 -0.186619  0.046182
  0N   1py       -0.000541  0.026094  0.052913  0.437900  0.188581 -0.046673
  0N   3s        -0.010634 -0.468662 -0.000002 -0.000004  0.232755  1.813204
  0N   2pz       -0.001508 -0.041892  0.109533  0.076054 -0.442981  0.380662
  0N   2px       -0.000571 -0.015857 -0.257240  0.064883 -0.167685  0.144092
  0N   2py        0.000577  0.016023  0.031783  0.263034  0.169448 -0.145618
  0N   1dz2       0.000110  0.008147  0.023231  0.019470 -0.016045 -0.000957
  0N   1dxz       0.000085  0.006247 -0.019078  0.000283 -0.012301 -0.000734
  0N   1dyz      -0.000085 -0.006312  0.009684  0.030195  0.012430  0.000742
  0N   1dx2y2    -0.000000 -0.000025 -0.030705  0.022368  0.000049  0.000003
  0N   1dxy      -0.000032 -0.002389  0.004079 -0.012870  0.004705  0.000281
  1H   1s        -0.000002 -0.134793 -0.267531  0.067477 -0.060924 -0.034983
  1H   2s         0.002252 -0.004841 -0.158191  0.039899 -0.043433 -0.939213
  2H   1s        -0.000002 -0.134795  0.192203  0.197950 -0.060923 -0.034981
  2H   2s         0.002252 -0.004841  0.113649  0.117049 -0.043432 -0.939205
  3H   1s        -0.000002 -0.134791  0.075329 -0.265427 -0.060924 -0.034984
  3H   2s         0.002252 -0.004841  0.044542 -0.156950 -0.043434 -0.939220
                      6         7         8         9        10        11   
                   0.32147   0.32147   0.90773   0.90773   0.97427   1.17080
                   0.00000   0.00000   0.00000   0.00000   0.00000   0.00000
                  --------  --------  --------  --------  --------  --------
  0N   1s         0.000001 -0.000000 -0.000000  0.000001 -0.032546 -0.086206
  0N   2s        -0.000000 -0.000000  0.000003  0.000002  0.167925  0.378014
  0N   1pz       -0.024747  0.155455  0.158620 -0.069044 -0.862250  0.242150
  0N   1px       -0.200825 -0.240306 -0.103748  0.328164 -0.326390  0.091681
  0N   1py       -0.263429  0.168594  0.311988  0.144227  0.329827 -0.092720
  0N   3s        -0.000027  0.000019 -0.000020 -0.000014  0.156929 -0.113449
  0N   2pz       -0.084123  0.528443 -0.526921  0.229379  0.982250  0.052948
  0N   2px       -0.682667 -0.816881  0.344657 -1.090160  0.371806  0.020003
  0N   2py       -0.895474  0.573102 -1.036416 -0.479121 -0.375733 -0.020111
  0N   1dz2      -0.001497  0.010766  0.081957 -0.018144  0.011460  0.140071
  0N   1dxz      -0.009526 -0.007469 -0.043554  0.000720  0.008785  0.107385
  0N   1dyz      -0.010522  0.003591  0.101096 -0.009129 -0.008877 -0.108508
  0N   1dx2y2    -0.005964  0.000114 -0.008284  0.165397 -0.000033 -0.000427
  0N   1dxy      -0.002151  0.007699 -0.101385 -0.037598 -0.003362 -0.041084
  1H   1s         0.029527  0.035333 -0.234734  0.742459 -0.108967 -0.732472
  1H   2s         1.125082  1.346274  0.013884 -0.043903 -0.091686  0.385607
  2H   1s         0.015836 -0.043237  0.760342 -0.167938 -0.108971 -0.732443
  2H   2s         0.603380 -1.647498 -0.044963  0.009921 -0.091691  0.385485
  3H   1s        -0.045365  0.007907 -0.525625 -0.574507 -0.108982 -0.732514
  3H   2s        -1.728428  0.301198  0.031113  0.033986 -0.091685  0.385700
                     12        13        14        15        16        17   
                   1.22049   1.22050   1.46080   1.97101   1.97102   2.31153
                   0.00000   0.00000   0.00000   0.00000   0.00000   0.00000
                  --------  --------  --------  --------  --------  --------
  0N   1s        -0.000006 -0.000004 -0.023803 -0.000000 -0.000000 -0.037191
  0N   2s         0.000022  0.000019  1.845636 -0.000001  0.000000 -0.490889
  0N   1pz        0.131572  0.468499  0.121699 -0.004830  0.007988  0.025679
  0N   1px        0.530747 -0.809661  0.046066  0.018293 -0.003196  0.009721
  0N   1py        0.869135  0.423505 -0.046548  0.005477  0.017719 -0.009819
  0N   3s        -0.000000 -0.000006 -3.410753  0.000004 -0.000000  1.372395
  0N   2pz       -0.170532 -0.607304 -0.510727 -0.009307  0.015393  0.330203
  0N   2px       -0.688008  1.049585 -0.193318  0.035254 -0.006159  0.124986
  0N   2py       -1.126689 -0.549003  0.195345  0.010555  0.034146 -0.126308
  0N   1dz2      -0.031352 -0.063436 -0.123426  0.306073 -0.384950 -0.677021
  0N   1dxz       0.020025  0.029794 -0.094628 -0.798802 -0.159441 -0.519052
  0N   1dyz      -0.048760 -0.069032  0.095619 -0.454352 -0.347711  0.524494
  0N   1dx2y2    -0.101443  0.090507  0.000377  0.192489 -0.225008  0.002077
  0N   1dxy       0.075227  0.042936  0.036199  0.153626 -0.808526  0.198556
  1H   1s        -0.299697  0.457090  0.185107 -0.036352  0.006351 -0.490697
  1H   2s         0.729164 -1.112324  0.732654 -0.001184  0.000207 -0.165175
  2H   1s        -0.246110 -0.488104  0.185111  0.012673 -0.034656 -0.490697
  2H   2s         0.598771  1.187649  0.732668  0.000412 -0.001128 -0.165182
  3H   1s         0.545650  0.030901  0.185117  0.023675  0.028305 -0.490705
  3H   2s        -1.327859 -0.075266  0.732636  0.000770  0.000921 -0.165174
                     18        19   
                   2.73746   2.73747
                   0.00000   0.00000
                  --------  --------
  0N   1s        -0.000001 -0.000001
  0N   2s        -0.000001 -0.000003
  0N   1pz        0.000320  0.035753
  0N   1px        0.053203 -0.047206
  0N   1py        0.053479  0.046747
  0N   3s         0.000020  0.000021
  0N   2pz        0.002887  0.324284
  0N   2px        0.482627 -0.428186
  0N   2py        0.485138  0.424018
  0N   1dz2       0.108946  0.665385
  0N   1dxz       0.009691 -0.332044
  0N   1dyz       0.329684  0.689426
  0N   1dx2y2     1.037099 -0.480162
  0N   1dxy      -0.484906 -0.415358
  1H   1s        -0.691660  0.613639
  1H   2s         0.008336 -0.007402
  2H   1s        -0.185609 -0.905821
  2H   2s         0.002241  0.010923
  3H   1s         0.877242  0.292162
  3H   2s        -0.010584 -0.003533


-------
DENSITY
-------
                  0          1          2          3          4          5    
      0       2.071389  -0.135820   0.030927   0.011707  -0.011830  -0.235945
      1      -0.135820   0.380083  -0.077222  -0.029231   0.029539   0.450382
      2       0.030927  -0.077222   0.593980   0.058698  -0.059314  -0.165580
      3       0.011707  -0.029231   0.058698   0.461133  -0.022454  -0.062678
      4      -0.011830   0.029539  -0.059314  -0.022454   0.461601   0.063335
      5      -0.235945   0.450382  -0.165580  -0.062678   0.063335   0.547864
      6       0.030063  -0.085574   0.501698   0.090114  -0.091060  -0.166915
      7       0.011380  -0.032393   0.090113   0.297752  -0.034470  -0.063183
      8      -0.011499   0.032733  -0.091060  -0.034470   0.298473   0.063846
      9       0.005305  -0.011088   0.028111  -0.010124   0.013884  -0.015108
     10       0.004067  -0.008501   0.004390   0.020671  -0.006085  -0.011583
     11      -0.004110   0.008590  -0.000217  -0.006085   0.031828   0.011704
     12      -0.000016   0.000034  -0.005579   0.031114   0.016358   0.000046
     13      -0.001556   0.003252  -0.006085  -0.007907  -0.009190   0.004431
     14      -0.047363   0.094992  -0.002019   0.273423   0.000771   0.097985
     15       0.007433  -0.007673  -0.004097   0.160576   0.001566  -0.015729
     16      -0.047363   0.094992   0.198687  -0.092160   0.163692   0.097984
     17       0.007433  -0.007673   0.114580  -0.055593   0.097903  -0.015730
     18      -0.047362   0.094990   0.038721  -0.092161  -0.254502   0.097984
     19       0.007433  -0.007673   0.019992  -0.055593  -0.149380  -0.015728
                  6          7          8          9         10         11    
      0       0.030063   0.011380  -0.011499   0.005305   0.004067  -0.004110
      1      -0.085574  -0.032393   0.032733  -0.011088  -0.008501   0.008590
      2       0.501698   0.090113  -0.091060   0.028111   0.004390  -0.000217
      3       0.090114   0.297752  -0.034470  -0.010124   0.020671  -0.006085
      4      -0.091060  -0.034470   0.298473   0.013884  -0.006085   0.031828
      5      -0.166915  -0.063183   0.063846  -0.015108  -0.011583   0.011704
      6       0.431542   0.103410  -0.104496   0.021583   0.006238  -0.003769
      7       0.103410   0.197505  -0.039555  -0.004303   0.013779  -0.005032
      8      -0.104496  -0.039555   0.198333   0.006543  -0.005032   0.020510
      9       0.021583  -0.004303   0.006543   0.002485  -0.000379   0.001124
     10       0.006238   0.013779  -0.005032  -0.000379   0.001109  -0.000737
     11      -0.003769  -0.005032   0.020510   0.001124  -0.000737   0.002400
     12      -0.003365   0.018684   0.009831  -0.000558   0.001183   0.000758
     13      -0.005032  -0.005271  -0.004993  -0.000502  -0.000309  -0.000551
     14       0.016927   0.171102  -0.006475  -0.010044   0.010061  -0.000919
     15       0.010294   0.101281  -0.003938  -0.004481   0.007067  -0.001673
     16       0.137483  -0.048491   0.091386   0.016397  -0.007407   0.015864
     17       0.081578  -0.028565   0.053928   0.011154  -0.003262   0.008251
     18       0.041398  -0.048492  -0.159811  -0.007077  -0.003210  -0.014383
     19       0.024764  -0.028565  -0.094607  -0.002727  -0.000780  -0.009634
                 12         13         14         15         16         17    
      0      -0.000016  -0.001556  -0.047363   0.007433  -0.047363   0.007433
      1       0.000034   0.003252   0.094992  -0.007673   0.094992  -0.007673
      2      -0.005579  -0.006085  -0.002019  -0.004097   0.198687   0.114580
      3       0.031114  -0.007907   0.273423   0.160576  -0.092160  -0.055593
      4       0.016358  -0.009190   0.000771   0.001566   0.163692   0.097903
      5       0.000046   0.004431   0.097985  -0.015729   0.097984  -0.015730
      6      -0.003365  -0.005032   0.016927   0.010294   0.137483   0.081578
      7       0.018684  -0.005271   0.171102   0.101281  -0.048491  -0.028565
      8       0.009831  -0.004993  -0.006475  -0.003938   0.091386   0.053928
      9      -0.000558  -0.000502  -0.010044  -0.004481   0.016397   0.011154
     10       0.001183  -0.000309   0.010061   0.007067  -0.007407  -0.003262
     11       0.000758  -0.000551  -0.000919  -0.001673   0.015864   0.008251
     12       0.002886  -0.000826   0.019448   0.011495  -0.002947  -0.001747
     13      -0.000826   0.000420  -0.003848  -0.002703  -0.003456  -0.002471
     14       0.019448  -0.003848   0.196014   0.096624  -0.032364  -0.038416
     15       0.011495  -0.002703   0.096624   0.057063  -0.038416  -0.022787
     16      -0.002947  -0.003456  -0.032364  -0.038416   0.196015   0.096624
     17      -0.001747  -0.002471  -0.038416  -0.022787   0.096624   0.057063
     18      -0.016499   0.007517  -0.032365  -0.038416  -0.032364  -0.038417
     19      -0.009761   0.004017  -0.038416  -0.022786  -0.038417  -0.022787
                 18         19    
      0      -0.047362   0.007433
      1       0.094990  -0.007673
      2       0.038721   0.019992
      3      -0.092161  -0.055593
      4      -0.254502  -0.149380
      5       0.097984  -0.015728
      6       0.041398   0.024764
      7      -0.048492  -0.028565
      8      -0.159811  -0.094607
      9      -0.007077  -0.002727
     10      -0.003210  -0.000780
     11      -0.014383  -0.009634
     12      -0.016499  -0.009761
     13       0.007517   0.004017
     14      -0.032365  -0.038416
     15      -0.038416  -0.022786
     16      -0.032364  -0.038417
     17      -0.038417  -0.022787
     18       0.196013   0.096625
     19       0.096625   0.057064



                    ********************************
                    * MULLIKEN POPULATION ANALYSIS *
                    ********************************

-----------------------
MULLIKEN ATOMIC CHARGES
-----------------------
   0 N :   -1.029546
   1 H :    0.343183
   2 H :    0.343182
   3 H :    0.343181
Sum of atomic charges:   -0.0000000

------------------------
MULLIKEN ORBITAL CHARGES
------------------------
The uncorrected charge=density diagonal is given in parenthesis)
   0:   0N   1s           1.997627 (  2.071389)
   1:   0N   2s           0.762662 (  0.380083)
   2:   0N   1pz          0.920274 (  0.593980)
   3:   0N   1px          0.762440 (  0.461133)
   4:   0N   1py          0.762996 (  0.461601)
   5:   0N   3s           0.942403 (  0.547864)
   6:   0N   2pz          0.785253 (  0.431542)
   7:   0N   2px          0.529396 (  0.197505)
   8:   0N   2py          0.530302 (  0.198333)
   9:   0N   1dz2         0.007901 (  0.002485)
  10:   0N   1dxz         0.002471 (  0.001109)
  11:   0N   1dyz         0.008708 (  0.002400)
  12:   0N   1dx2y2       0.014543 (  0.002886)
  13:   0N   1dxy         0.002570 (  0.000420)
  14:   1H   1s           0.497399 (  0.196014)
  15:   1H   2s           0.159418 (  0.057063)
  16:   2H   1s           0.497401 (  0.196015)
  17:   2H   2s           0.159417 (  0.057063)
  18:   3H   1s           0.497397 (  0.196013)
  19:   3H   2s           0.159423 (  0.057064)
Sum of orbital charges :   10.0000000

--------------------------------
MULLIKEN REDUCED ORBITAL CHARGES
--------------------------------
  0 N s       :     3.702692  s :     3.702692
      pz      :     1.705526  p :     4.290661
      px      :     1.291836
      py      :     1.293298
      dz2     :     0.007901  d :     0.036193
      dxz     :     0.002471
      dyz     :     0.008708
      dx2y2   :     0.014543
      dxy     :     0.002570
  1 H s       :     0.656817  s :     0.656817
  2 H s       :     0.656818  s :     0.656818
  3 H s       :     0.656819  s :     0.656819

------------------------
MULLIKEN OVERLAP CHARGES
------------------------
B(  0-N ,  1-H ) :   0.6530 B(  0-N ,  2-H ) :   0.6530 B(  0-N ,  3-H ) :   0.6530 


-----------------------------------
MULLIKEN ORBITAL POPULATIONS PER MO
-----------------------------------
THRESHOLD FOR PRINTING IS 0.1%
                      0         1         2         3         4         5   
                 -15.53299  -1.12620  -0.62279  -0.62278  -0.41179   0.22258
                   2.00000   2.00000   2.00000   2.00000   2.00000   0.00000
                  --------  --------  --------  --------  --------  --------
  0N   1s             99.6       0.3       0.0       0.0       0.0       0.1
  0N   2s              0.6      34.8       0.0       0.0       2.7       3.1
  0N   1pz             0.0       0.9       5.6       2.7      36.9       1.8
  0N   1px             0.0       0.1      30.8       2.0       5.3       0.3
  0N   1py             0.0       0.1       0.5      32.2       5.4       0.3
  0N   3s             -0.2      43.5       0.0       0.0       3.8     -25.1
  0N   2pz            -0.0       0.6       3.7       1.8      33.2      -0.7
  0N   2px            -0.0       0.1      20.3       1.3       4.8      -0.1
  0N   2py            -0.0       0.1       0.3      21.3       4.9      -0.1
  0N   1dz2           -0.0       0.0       0.2       0.2      -0.0      -0.0
  0N   1dxz           -0.0       0.0       0.1      -0.0      -0.0      -0.0
  0N   1dyz           -0.0       0.0       0.1       0.4      -0.0      -0.0
[...]
  0N   2s              0.0       0.0      45.1       0.0       0.0       1.0
  0N   1pz             4.4       5.9       0.4       0.0       0.0       0.1
  0N   1px            40.9       0.0       0.1       0.0       0.0       0.0
  0N   1py             0.7      40.1       0.1       0.0       0.0       0.0
  0N   3s              0.0      -0.0      76.7       0.0       0.0       6.9
  0N   2pz             2.6       3.6       0.8       0.0       0.0       1.1
  0N   2px            24.5       0.0       0.1       0.0       0.1       0.2
  0N   2py             0.4      24.0       0.1       0.1       0.0       0.2
  0N   1dz2            0.4       1.0       3.3       9.7      12.2      36.5
  0N   1dxz            0.1       0.2       1.9       8.4      57.1      21.4
  0N   1dyz            0.2       1.6       2.0      15.0      16.1      21.9
  0N   1dx2y2          3.9       0.3       0.0       3.3       7.0       0.0
  0N   1dxy            0.0       1.4       0.3      63.4       7.5       3.1
  1H   1s             18.0       0.0      -0.5       0.0       0.0       3.3
  1H   2s             -3.5      -0.0      -9.8      -0.0      -0.0      -0.8
  2H   1s              4.4      13.6      -0.5       0.0       0.0       3.3
  2H   2s             -0.8      -2.6      -9.8      -0.0      -0.0      -0.8
  3H   1s              4.6      13.4      -0.5       0.0       0.0       3.3
  3H   2s             -0.9      -2.6      -9.8      -0.0      -0.0      -0.8

                     18        19   
                   2.76985   2.76985
                   0.00000   0.00000
                  --------  --------
  0N   1px             0.1       0.0
  0N   1py             0.0       0.1
  0N   2px             0.2       0.0
  0N   2py             0.0       0.2
  0N   1dz2           10.7      19.1
  0N   1dxz            5.1       2.5
  0N   1dyz            3.3      33.6
  0N   1dx2y2         66.4      10.2
  0N   1dxy            0.3      20.5
  1H   1s              9.2       0.0
  2H   1s              2.8       6.4
  3H   1s              1.8       7.4


                     *******************************
                     * LOEWDIN POPULATION ANALYSIS *
                     *******************************

----------------------
LOEWDIN ATOMIC CHARGES
----------------------
   0 N :   -0.700779
   1 H :    0.233593
   2 H :    0.233593
   3 H :    0.233593

-----------------------
LOEWDIN ORBITAL CHARGES
-----------------------
   0:   0N   1s           1.992736
   1:   0N   2s           0.722990
   2:   0N   1pz          0.888273
   3:   0N   1px          0.715956
   4:   0N   1py          0.716565
   5:   0N   3s           0.620274
   6:   0N   2pz          0.807771
   7:   0N   2px          0.591511
   8:   0N   2py          0.592276
   9:   0N   1dz2         0.011091
  10:   0N   1dxz         0.003604
  11:   0N   1dyz         0.012423
  12:   0N   1dx2y2       0.021132
  13:   0N   1dxy         0.004177
  14:   1H   1s           0.481976
  15:   1H   2s           0.284430
  16:   2H   1s           0.481977
  17:   2H   2s           0.284430
  18:   3H   1s           0.481977
  19:   3H   2s           0.284430

-------------------------------
LOEWDIN REDUCED ORBITAL CHARGES
-------------------------------
  0 N s       :     3.336000  s :     3.336000
      pz      :     1.696044  p :     4.312352
      px      :     1.307467
      py      :     1.308841
      dz2     :     0.011091  d :     0.052427
      dxz     :     0.003604
      dyz     :     0.012423
      dx2y2   :     0.021132
      dxy     :     0.004177
  1 H s       :     0.766407  s :     0.766407
  2 H s       :     0.766407  s :     0.766407
  3 H s       :     0.766407  s :     0.766407

---------------------------------
LOEWDIN BOND ORDERS (THRESH 0.050000)
---------------------------------
B(  0-N ,  1-H ) :   0.9509 B(  0-N ,  2-H ) :   0.9509 B(  0-N ,  3-H ) :   0.9509 


----------------------------------
LOEWDIN ORBITAL POPULATIONS PER MO
----------------------------------
THRESHOLD FOR PRINTING IS 0.1%
                      0         1         2         3         4         5   
                 -15.52951  -1.14016  -0.62766  -0.62766  -0.41978   0.22536
                   2.00000   2.00000   2.00000   2.00000   2.00000   0.00000
                  --------  --------  --------  --------  --------  --------
  0N   1s             98.0       1.6       0.0       0.0       0.1       0.1
  0N   2s              1.4      30.9       0.0       0.0       3.9      17.1
  0N   1pz             0.0       1.0       4.5       3.2      35.7       2.9
  0N   1px             0.0       0.1       0.0      30.5       5.1       0.4
  0N   1py             0.0       0.1      29.9       0.6       5.2       0.4
  0N   3s              0.5      26.9       0.0       0.0       3.6       7.9
  0N   2pz             0.0       0.4       3.6       2.6      33.8       0.5
  0N   2px             0.0       0.1       0.0      24.7       4.8       0.1
  0N   2py             0.0       0.1      24.1       0.5       4.9       0.1
  0N   1dz2            0.0       0.0       0.4       0.2       0.0       0.1
  0N   1dxz            0.0       0.0       0.0       0.1       0.0       0.1
  0N   1dyz            0.0       0.0       0.6       0.0       0.0       0.1
  0N   1dx2y2          0.0       0.0       0.1       0.9       0.0       0.0
  0N   1dxy            0.0       0.0       0.2       0.0       0.0       0.0
  1H   1s              0.0       6.0       0.0      17.3       0.9       0.1
  1H   2s              0.0       7.0       0.0       7.1       0.1      23.3
  2H   1s              0.0       6.0      13.2       4.1       0.9       0.1
  2H   2s              0.0       7.0       5.4       1.7       0.1      23.3
  3H   1s              0.0       6.0      12.7       4.5       0.9       0.1
  3H   2s              0.0       7.0       5.3       1.9       0.1      23.3

                      6         7         8         9        10        11   
                   0.32502   0.32502   0.89642   0.89642   0.97470   1.22493
                   0.00000   0.00000   0.00000   0.00000   0.00000   0.00000
                  --------  --------  --------  --------  --------  --------
  0N   1s              0.0       0.0       0.0       0.0       0.0       0.2
  0N   2s              0.0       0.0       0.0       0.0       2.2       8.9
  0N   1pz             2.1       2.6       0.3       0.5      34.1       3.4
  0N   1px            18.4       0.0       3.3       0.0       4.9       0.5
  0N   1py             0.2      18.1       0.1       3.2       5.0       0.5
  0N   3s              0.0       0.0       0.0       0.0       0.2       0.1
  0N   2pz             0.4       0.5       4.2       5.9      41.1       0.2
  0N   2px             3.5       0.0      40.1       0.0       5.9       0.0
  0N   2py             0.0       3.5       0.8      39.2       6.0       0.0
  0N   1dz2            0.1       0.3       1.6       4.3       0.1       5.3
  0N   1dxz            0.0       0.1       0.6       0.8       0.1       3.1
  0N   1dyz            0.1       0.6       0.5       7.1       0.1       3.2
  0N   1dx2y2          1.5       0.1      16.0       1.2       0.0       0.0
  0N   1dxy            0.0       0.6       0.1       5.4       0.0       0.5
  1H   1s              1.7       0.0      18.2       0.0       0.1      21.8
  1H   2s             47.4       0.0       3.3       0.0       0.0       2.9
  2H   1s              0.4       1.3       4.3      14.0       0.1      21.8
  2H   2s             12.3      35.0       0.8       2.5       0.0       2.9
  3H   1s              0.4       1.3       4.9      13.4       0.1      21.8
  3H   2s             11.4      36.0       0.9       2.4       0.0       2.9

                     12        13        14        15        16        17   
                   1.23244   1.23244   1.47703   1.96328   1.96328   2.28591
                   0.00000   0.00000   0.00000   0.00000   0.00000   0.00000
                  --------  --------  --------  --------  --------  --------
  0N   2s              0.0       0.0      34.8       0.0       0.0       0.8
  0N   1pz             3.9       5.3       0.2       0.0       0.0       0.2
  0N   1px            36.4       0.0       0.0       0.0       0.0       0.0
  0N   1py             0.6      35.6       0.0       0.0       0.0       0.0
  0N   3s              0.0       0.0      52.6       0.0       0.0       8.2
  0N   2pz             1.9       2.5       0.7       0.0       0.0       0.9
  0N   2px            17.3       0.0       0.1       0.0       0.0       0.1
  0N   2py             0.3      16.9       0.1       0.0       0.0       0.1
  0N   1dz2            0.4       1.0       4.8       9.8      12.3      33.6
  0N   1dxz            0.1       0.2       2.8       8.4      57.2      19.8
  0N   1dyz            0.2       1.7       2.9      15.2      16.1      20.2
  0N   1dx2y2          4.0       0.3       0.0       3.3       6.8       0.0
  0N   1dxy            0.0       1.4       0.4      63.2       7.5       2.9
  1H   1s             14.5       0.0       0.1       0.0       0.0       4.3
  1H   2s              8.8       0.0       0.0       0.0       0.0       0.1
  2H   1s              3.5      11.0       0.1       0.0       0.0       4.3
  2H   2s              2.1       6.6       0.0       0.0       0.0       0.1
  3H   1s              3.7      10.8       0.1       0.0       0.0       4.3
  3H   2s              2.2       6.5       0.0       0.0       0.0       0.1

                     18        19   
                   2.76985   2.76985
                   0.00000   0.00000
                  --------  --------
  0N   1px             0.3       0.0
  0N   1py             0.0       0.3
  0N   2pz             0.4       0.4
  0N   2px             3.2       0.0
  0N   2py             0.0       3.2
  0N   1dz2            9.2      16.4
  0N   1dxz            4.4       2.1
  0N   1dyz            2.8      28.8
  0N   1dx2y2         56.9       8.7
  0N   1dxy            0.2      17.6
  1H   1s             14.8       0.1
  2H   1s              4.6      10.3
  3H   1s              2.9      12.0

------------------------------------------
LOEWDIN REDUCED ORBITAL POPULATIONS PER MO
-------------------------------------------
THRESHOLD FOR PRINTING IS 0.1%
                      0         1         2         3         4         5   
                 -15.52951  -1.14016  -0.62766  -0.62766  -0.41978   0.22536
                   2.00000   2.00000   2.00000   2.00000   2.00000   0.00000
                  --------  --------  --------  --------  --------  --------
 0 N  s              99.8      59.4       0.0       0.0       7.5      25.1
 0 N  pz              0.0       1.3       8.1       5.8      69.5       3.4
 0 N  px              0.0       0.2       0.0      55.2      10.0       0.5
 0 N  py              0.0       0.2      54.0       1.1      10.2       0.5
 0 N  dz2             0.0       0.0       0.4       0.2       0.0       0.1
 0 N  dxz             0.0       0.0       0.0       0.1       0.0       0.1
 0 N  dyz             0.0       0.0       0.6       0.0       0.0       0.1
 0 N  dx2y2           0.0       0.0       0.1       0.9       0.0       0.0
 0 N  dxy             0.0       0.0       0.2       0.0       0.0       0.0
 1 H  s               0.1      12.9       0.0      24.4       0.9      23.4
 2 H  s               0.1      12.9      18.6       5.8       0.9      23.4
 3 H  s               0.1      12.9      18.0       6.4       0.9      23.4

                      6         7         8         9        10        11   
                   0.32502   0.32502   0.89642   0.89642   0.97470   1.22493
                   0.00000   0.00000   0.00000   0.00000   0.00000   0.00000
                  --------  --------  --------  --------  --------  --------
 0 N  s               0.0       0.0       0.0       0.0       2.4       9.2
 0 N  pz              2.5       3.1       4.5       6.4      75.2       3.6
 0 N  px             21.9       0.0      43.4       0.0      10.8       0.5
 0 N  py              0.3      21.6       0.9      42.4      11.0       0.5
 0 N  dz2             0.1       0.3       1.6       4.3       0.1       5.3
 0 N  dxz             0.0       0.1       0.6       0.8       0.1       3.1
 0 N  dyz             0.1       0.6       0.5       7.1       0.1       3.2
 0 N  dx2y2           1.5       0.1      16.0       1.2       0.0       0.0
 0 N  dxy             0.0       0.6       0.1       5.4       0.0       0.5
 1 H  s              49.1       0.0      21.5       0.0       0.1      24.7
 2 H  s              12.8      36.3       5.0      16.5       0.1      24.7
 3 H  s              11.8      37.3       5.7      15.8       0.1      24.7

                     12        13        14        15        16        17   
                   1.23244   1.23244   1.47703   1.96328   1.96328   2.28591
                   0.00000   0.00000   0.00000   0.00000   0.00000   0.00000
                  --------  --------  --------  --------  --------  --------
 0 N  s               0.0       0.0      87.5       0.0       0.0       9.0
 0 N  pz              5.8       7.8       0.9       0.0       0.0       1.1
 0 N  px             53.7       0.0       0.1       0.0       0.1       0.2
 0 N  py              0.9      52.6       0.1       0.1       0.0       0.2
 0 N  dz2             0.4       1.0       4.8       9.8      12.3      33.6
 0 N  dxz             0.1       0.2       2.8       8.4      57.2      19.8
 0 N  dyz             0.2       1.7       2.9      15.2      16.1      20.2
 0 N  dx2y2           4.0       0.3       0.0       3.3       6.8       0.0
 0 N  dxy             0.0       1.4       0.4      63.2       7.5       2.9
 1 H  s              23.3       0.0       0.2       0.0       0.0       4.4
 2 H  s               5.7      17.6       0.2       0.0       0.0       4.4
 3 H  s               6.0      17.3       0.2       0.0       0.0       4.4

                     18        19   
                   2.76985   2.76985
                   0.00000   0.00000
                  --------  --------
 0 N  pz              0.4       0.4
 0 N  px              3.5       0.0
 0 N  py              0.0       3.5
 0 N  dz2             9.2      16.4
 0 N  dxz             4.4       2.1
 0 N  dyz             2.8      28.8
 0 N  dx2y2          56.9       8.7
 0 N  dxy             0.2      17.6
 1 H  s              14.9       0.1
 2 H  s               4.6      10.3
 3 H  s               2.9      12.0


                      *****************************
                      * MAYER POPULATION ANALYSIS *
                      *****************************

  NA   - Mulliken gross atomic population
  ZA   - Total nuclear charge
  QA   - Mulliken gross atomic charge
  VA   - Mayer's total valence
  BVA  - Mayer's bonded valence
  FA   - Mayer's free valence

  ATOM       NA         ZA         QA         VA         BVA        FA
  0 N      8.0209     7.0000    -1.0209     2.5709     2.5709    -0.0000
  1 H      0.6597     1.0000     0.3403     0.8434     0.8434    -0.0000
  2 H      0.6597     1.0000     0.3403     0.8434     0.8434     0.0000
  3 H      0.6597     1.0000     0.3403     0.8434     0.8434    -0.0000

  Mayer bond orders larger than 0.100000
B(  0-N ,  1-H ) :   0.8570 B(  0-N ,  2-H ) :   0.8570 B(  0-N ,  3-H ) :   0.8570 


-------
TIMINGS
-------

Total SCF time: 0 days 0 hours 0 min 0 sec 

Total time                  ....       0.353 sec
Sum of individual times     ....       0.132 sec  ( 37.3%)

Fock matrix formation       ....       0.041 sec  ( 11.6%)
Diagonalization             ....       0.002 sec  (  0.6%)
Density matrix formation    ....       0.000 sec  (  0.0%)
Population analysis         ....       0.085 sec  ( 24.0%)
Initial guess               ....       0.001 sec  (  0.3%)
Orbital Transformation      ....       0.000 sec  (  0.0%)
Orbital Orthonormalization  ....       0.000 sec  (  0.0%)
DIIS solution               ....       0.000 sec  (  0.0%)
SOSCF solution              ....       0.003 sec  (  0.7%)

Maximum memory used throughout the entire SCF-calculation: 224.4 MB

-------------------------   --------------------
FINAL SINGLE POINT ENERGY       -56.183713453847
-------------------------   --------------------

                                *** OPTIMIZATION RUN DONE ***

                            ***************************************
                            *     ORCA property calculations      *
                            ***************************************

                                    ---------------------
                                    Active property flags
                                    ---------------------
   (+) Dipole Moment


------------------------------------------------------------------------------
                       ORCA ELECTRIC PROPERTIES CALCULATION
------------------------------------------------------------------------------

Dipole Moment Calculation                       ... on
Quadrupole Moment Calculation                   ... off
Polarizability Calculation                      ... off
GBWName                                         ... result.gbw
Electron density                                ... result.scfp
----------------------
SHARK INTEGRAL PACKAGE
----------------------

Number of atoms                             ...      4
Number of basis functions                   ...     20
Number of shells                            ...     12
Maximum angular momentum                    ...      2
Integral batch strategy                     ... SHARK/LIBINT Hybrid
RI-J (if used) integral strategy            ... SPLIT-RIJ (Revised 2003 algorithm where possible)
Printlevel                                  ...      2
Contraction scheme used                     ... SEGMENTED contraction
Coulomb Range Separation                    ... NOT USED
Exchange Range Separation                   ... NOT USED
Finite Nucleus Model                        ... NOT USED
Auxiliary Coulomb fitting basis             ... NOT available
Auxiliary J/K fitting basis                 ... NOT available
Auxiliary Correlation fitting basis         ... NOT available
Auxiliary 'external' fitting basis          ... NOT available
Integral threshold                          ...     2.500000e-11
Primitive cut-off                           ...     2.500000e-12
Primitive pair pre-selection threshold      ...     2.500000e-12

The origin for moment calculation is the CENTER OF MASS  = (-0.301907,  1.880101  0.071939)

-------------
DIPOLE MOMENT
-------------
                                X             Y             Z
Electronic contribution:     -0.03485       0.03521      -0.09205
Nuclear contribution   :      0.28532      -0.28832       0.75376
                        -----------------------------------------
Total Dipole Moment    :      0.25048      -0.25311       0.66171
                        -----------------------------------------
Magnitude (a.u.)       :      0.75144
Magnitude (Debye)      :      1.91000



--------------------
Rotational spectrum 
--------------------
 
Rotational constants in cm-1:    10.197022    10.197013     6.420385 
Rotational constants in MHz : 305699.032801 305698.758111 192478.302388 

 Dipole components along the rotational axes: 
x,y,z [a.u.] :    -0.000000    -0.000001     0.751438 
x,y,z [Debye]:    -0.000000    -0.000002     1.910005 

 

Timings for individual modules:

Sum of individual times         ...        3.614 sec (=   0.060 min)
GTO integral calculation        ...        0.592 sec (=   0.010 min)  16.4 %
SCF iterations                  ...        2.604 sec (=   0.043 min)  72.0 %
SCF Gradient evaluation         ...        0.307 sec (=   0.005 min)   8.5 %
Geometry relaxation             ...        0.111 sec (=   0.002 min)   3.1 %
                             ****ORCA TERMINATED NORMALLY****
TOTAL RUN TIME: 0 days 0 hours 0 minutes 8 seconds 88 msec
