
                                 *****************
                                 * O   R   C   A *
                                 *****************

                                            #,                                       
                                            ###                                      
                                            ####                                     
                                            #####                                    
                                            ######                                   
                                           ########,                                 
                                     ,,################,,,,,                         
                               ,,#################################,,                 
                          ,,##########################################,,             
                       ,#########################################, ''#####,          
                    ,#############################################,,   '####,        
                  ,##################################################,,,,####,       
                ,###########''''           ''''###############################       
              ,#####''   ,,,,##########,,,,          '''####'''          '####       
            ,##' ,,,,###########################,,,                        '##       
           ' ,,###''''                  '''############,,,                           
         ,,##''                                '''############,,,,        ,,,,,,###''
      ,#''                                            '''#######################'''  
     '                                                          ''''####''''         
             ,#######,   #######,   ,#######,      ##                                
            ,#'     '#,  ##    ##  ,#'     '#,    #''#        ######   ,####,        
            ##       ##  ##   ,#'  ##            #'  '#       #        #'  '#        
            ##       ##  #######   ##           ,######,      #####,   #    #        
            '#,     ,#'  ##    ##  '#,     ,#' ,#      #,         ##   #,  ,#        
             '#######'   ##     ##  '#######'  #'      '#     #####' # '####'        



                  #######################################################
                  #                        -***-                        #
                  #          Department of theory and spectroscopy      #
                  #    Directorship and core code : Frank Neese         #
                  #        Max Planck Institute fuer Kohlenforschung    #
                  #                Kaiser Wilhelm Platz 1               #
                  #                 D-45470 Muelheim/Ruhr               #
                  #                      Germany                        #
                  #                                                     #
                  #                  All rights reserved                #
                  #                        -***-                        #
                  #######################################################


                         Program Version 5.0.1 -  RELEASE  -


 With contributions from (in alphabetic order):
   Daniel Aravena         : Magnetic Suceptibility
   Michael Atanasov       : Ab Initio Ligand Field Theory (pilot matlab implementation)
   Alexander A. Auer      : GIAO ZORA, VPT2 properties, NMR spectrum
   Ute Becker             : Parallelization
   Giovanni Bistoni       : ED, misc. LED, open-shell LED, HFLD
   Martin Brehm           : Molecular dynamics
   Dmytro Bykov           : SCF Hessian
   Vijay G. Chilkuri      : MRCI spin determinant printing, contributions to CSF-ICE
   Dipayan Datta          : RHF DLPNO-CCSD density
   Achintya Kumar Dutta   : EOM-CC, STEOM-CC
   Dmitry Ganyushin       : Spin-Orbit,Spin-Spin,Magnetic field MRCI
   Miquel Garcia          : C-PCM and meta-GGA Hessian, CC/C-PCM, Gaussian charge scheme
   Yang Guo               : DLPNO-NEVPT2, F12-NEVPT2, CIM, IAO-localization
   Andreas Hansen         : Spin unrestricted coupled pair/coupled cluster methods
   Benjamin Helmich-Paris : MC-RPA, TRAH-SCF, COSX integrals
   Lee Huntington         : MR-EOM, pCC
   Robert Izsak           : Overlap fitted RIJCOSX, COSX-SCS-MP3, EOM
   Marcus Kettner         : VPT2
   Christian Kollmar      : KDIIS, OOCD, Brueckner-CCSD(T), CCSD density, CASPT2, CASPT2-K
   Simone Kossmann        : Meta GGA functionals, TD-DFT gradient, OOMP2, MP2 Hessian
   Martin Krupicka        : Initial AUTO-CI
   Lucas Lang             : DCDCAS
   Marvin Lechner         : AUTO-CI (C++ implementation), FIC-MRCC
   Dagmar Lenk            : GEPOL surface, SMD
   Dimitrios Liakos       : Extrapolation schemes; Compound Job, initial MDCI parallelization
   Dimitrios Manganas     : Further ROCIS development; embedding schemes
   Dimitrios Pantazis     : SARC Basis sets
   Anastasios Papadopoulos: AUTO-CI, single reference methods and gradients
   Taras Petrenko         : DFT Hessian,TD-DFT gradient, ASA, ECA, R-Raman, ABS, FL, XAS/XES, NRVS
   Peter Pinski           : DLPNO-MP2, DLPNO-MP2 Gradient
   Christoph Reimann      : Effective Core Potentials
   Marius Retegan         : Local ZFS, SOC
   Christoph Riplinger    : Optimizer, TS searches, QM/MM, DLPNO-CCSD(T), (RO)-DLPNO pert. Triples
   Tobias Risthaus        : Range-separated hybrids, TD-DFT gradient, RPA, STAB
   Michael Roemelt        : Original ROCIS implementation
   Masaaki Saitow         : Open-shell DLPNO-CCSD energy and density
   Barbara Sandhoefer     : DKH picture change effects
   Avijit Sen             : IP-ROCIS
   Kantharuban Sivalingam : CASSCF convergence, NEVPT2, FIC-MRCI
   Bernardo de Souza      : ESD, SOC TD-DFT
   Georgi Stoychev        : AutoAux, RI-MP2 NMR, DLPNO-MP2 response
   Willem Van den Heuvel  : Paramagnetic NMR
   Boris Wezisla          : Elementary symmetry handling
   Frank Wennmohs         : Technical directorship


 We gratefully acknowledge several colleagues who have allowed us to
 interface, adapt or use parts of their codes:
   Stefan Grimme, W. Hujo, H. Kruse, P. Pracht,  : VdW corrections, initial TS optimization,
                  C. Bannwarth, S. Ehlert          DFT functionals, gCP, sTDA/sTD-DF
   Ed Valeev, F. Pavosevic, A. Kumar             : LibInt (2-el integral package), F12 methods
   Garnet Chan, S. Sharma, J. Yang, R. Olivares  : DMRG
   Ulf Ekstrom                                   : XCFun DFT Library
   Mihaly Kallay                                 : mrcc  (arbitrary order and MRCC methods)
   Jiri Pittner, Ondrej Demel                    : Mk-CCSD
   Frank Weinhold                                : gennbo (NPA and NBO analysis)
   Christopher J. Cramer and Donald G. Truhlar   : smd solvation model
   Lars Goerigk                                  : TD-DFT with DH, B97 family of functionals
   V. Asgeirsson, H. Jonsson                     : NEB implementation
   FAccTs GmbH                                   : IRC, NEB, NEB-TS, DLPNO-Multilevel, CI-OPT
                                                   MM, QMMM, 2- and 3-layer-ONIOM, Crystal-QMMM,
                                                   LR-CPCM, SF, NACMEs, symmetry and pop. for TD-DFT,
                                                   nearIR, NL-DFT gradient (VV10), updates on ESD,
                                                   ML-optimized integration grids
   S Lehtola, MJT Oliveira, MAL Marques          : LibXC Library
   Liviu Ungur et al                             : ANISO software


 Your calculation uses the libint2 library for the computation of 2-el integrals
 For citations please refer to: http://libint.valeyev.net

 Your ORCA version has been built with support for libXC version: 5.1.0
 For citations please refer to: https://tddft.org/programs/libxc/

 This ORCA versions uses:
   CBLAS   interface :  Fast vector & matrix operations
   LAPACKE interface :  Fast linear algebra routines
   SCALAPACK package :  Parallel linear algebra routines
   Shared memory     :  Shared parallel matrices
   BLAS/LAPACK       :  OpenBLAS 0.3.15  USE64BITINT DYNAMIC_ARCH NO_AFFINITY Haswell SINGLE_THREADED
        Core in use  :  Haswell
   Copyright (c) 2011-2014, The OpenBLAS Project


================================================================================

----- Orbital basis set information -----
Your calculation utilizes the basis: 6-31G(d)
   H-He, Li-Ne : W. J. Hehre, R. Ditchfield and J.A. Pople, J. Chem. Phys. 56, 2257 (1972).
                 Note: He and Ne are unpublished basis sets taken from the Gaussian program.
                 Note: Li and B from J. D. Dill and J. A. Pople, J. Chem. Phys. 62, 2921 (1975).
   Na - Ar     : M. M. Francl, W. J. Pietro, W. J. Hehre, J. S. Binkley, M. S. Gordon, 
                 D. J. DeFrees and J. A. Pople, J. Chem. Phys. 77, 3654 (1982).
   K - Zn      : V. A. Rassolov, J. A. Pople, M. A. Ratner, and T. L. Windus, J. Chem. Phys. 109, 1223 (1998).

================================================================================
                                        WARNINGS
                       Please study these warnings very carefully!
================================================================================


WARNING: Geometry Optimization
  ===> : Switching off AutoStart
         For restart on a previous wavefunction, please use MOREAD

INFO   : the flag for use of the SHARK integral package has been found!

================================================================================
                                       INPUT FILE
================================================================================
NAME = result.inp
|  1> # avogadro generated ORCA input file 
|  2> # Basic Mode
|  3> # 
|  4> ! HF OPT 6-31g(d) LargePrint 
|  5> 
|  6> * xyz 0 1
|  7>    O       -2.01390        0.85668        0.00000
|  8>    F       -1.04390        0.85668        0.00000
|  9>    F       -2.33723        1.40238       -0.73387
| 10> *
| 11> 
| 12> 
| 13>                          ****END OF INPUT****
================================================================================

                       *****************************
                       * Geometry Optimization Run *
                       *****************************

Geometry optimization settings:
Update method            Update   .... BFGS
Choice of coordinates    CoordSys .... Z-matrix Internals
Initial Hessian          InHess   .... Almoef's Model

Convergence Tolerances:
Energy Change            TolE     ....  5.0000e-06 Eh
Max. Gradient            TolMAXG  ....  3.0000e-04 Eh/bohr
RMS Gradient             TolRMSG  ....  1.0000e-04 Eh/bohr
Max. Displacement        TolMAXD  ....  4.0000e-03 bohr
RMS Displacement         TolRMSD  ....  2.0000e-03 bohr
Strict Convergence                ....  False
------------------------------------------------------------------------------
                        ORCA OPTIMIZATION COORDINATE SETUP
------------------------------------------------------------------------------

The optimization will be done in new redundant internal coordinates
Making redundant internal coordinates   ...  (new redundants) done
Evaluating the initial hessian          ...  (Almloef) done
Evaluating the coordinates              ...  done
Calculating the B-matrix                .... done
Calculating the G-matrix                .... done
Diagonalizing the G-matrix              .... done
The first mode is                       ....    3
The number of degrees of freedom        ....    3

    -----------------------------------------------------------------
                    Redundant Internal Coordinates


    -----------------------------------------------------------------
         Definition                    Initial Value    Approx d2E/dq
    -----------------------------------------------------------------
      1. B(F   1,O   0)                  0.9700         2.178647   
      2. B(F   2,F   1)                  1.5840         0.212168   
      3. B(F   2,O   0)                  0.9700         2.178664   
      4. A(F   1,O   0,F   2)          109.4711         0.671787   
      5. A(O   0,F   1,F   2)           35.2644         0.431020   
      6. A(O   0,F   2,F   1)           35.2645         0.431020   
    -----------------------------------------------------------------

Number of atoms                         .... 3
Number of degrees of freedom            .... 6

         *************************************************************
         *                GEOMETRY OPTIMIZATION CYCLE   1            *
         *************************************************************
---------------------------------
CARTESIAN COORDINATES (ANGSTROEM)
---------------------------------
  O     -2.013900    0.856680    0.000000
  F     -1.043900    0.856680    0.000000
  F     -2.337230    1.402380   -0.733870

----------------------------
CARTESIAN COORDINATES (A.U.)
----------------------------
  NO LB      ZA    FRAG     MASS         X           Y           Z
   0 O     8.0000    0    15.999   -3.805719    1.618891    0.000000
   1 F     9.0000    0    18.998   -1.972685    1.618891    0.000000
   2 F     9.0000    0    18.998   -4.416725    2.650114   -1.386813

--------------------------------
INTERNAL COORDINATES (ANGSTROEM)
--------------------------------
 O      0   0   0     0.000000000000     0.00000000     0.00000000
 F      1   0   0     0.970000000000     0.00000000     0.00000000
 F      1   2   0     0.969997915359   109.47105533     0.00000000

---------------------------
INTERNAL COORDINATES (A.U.)
---------------------------
 O      0   0   0     0.000000000000     0.00000000     0.00000000
 F      1   0   0     1.833034349904     0.00000000     0.00000000
 F      1   2   0     1.833030410502   109.47105533     0.00000000

---------------------
BASIS SET INFORMATION
---------------------
There are 2 groups of distinct atoms

 Group   1 Type O   : 10s4p1d contracted to 3s2p1d pattern {631/31/1}
 Group   2 Type F   : 10s4p1d contracted to 3s2p1d pattern {631/31/1}

Atom   0O    basis set group =>   1
Atom   1F    basis set group =>   2
Atom   2F    basis set group =>   2

-------------------------
BASIS SET IN INPUT FORMAT
-------------------------

 # Basis set for element : O 
 NewGTO O 
 S 6 
   1    5484.6717000000      0.0018310998
   2     825.2349500000      0.0139500985
   3     188.0469600000      0.0684450927
   4      52.9645000000      0.2327142753
   5      16.8975700000      0.4701929501
   6       5.7996353000      0.3585208619
 S 3 
   1      15.5396160000     -0.1107775038
   2       3.5999336000     -0.1480263051
   3       1.0137618000      1.1307670390
 P 3 
   1      15.5396160000      0.0708742995
   2       3.5999336000      0.3397527978
   3       1.0137618000      0.7271585953
 S 1 
   1       0.2700058000      1.0000000000
 P 1 
   1       0.2700058000      1.0000000000
 D 1 
   1       0.8000000000      1.0000000000
  end;

 # Basis set for element : F 
 NewGTO F 
 S 6 
   1    7001.7130900000      0.0018196200
   2    1051.3660900000      0.0139160800
   3     239.2856900000      0.0684053199
   4      67.3974453000      0.2331857596
   5      21.5199573000      0.4712674391
   6       7.4031013000      0.3566185493
 S 3 
   1      20.8479528000     -0.1085069803
   2       4.8083083400     -0.1464516604
   3       1.3440698600      1.1286885835
 P 3 
   1      20.8479528000      0.0716287200
   2       4.8083083400      0.3459121001
   3       1.3440698600      0.7224699603
 S 1 
   1       0.3581513900      1.0000000000
 P 1 
   1       0.3581513900      1.0000000000
 D 1 
   1       0.8000000000      1.0000000000
  end;

------------------------------------------------------------------------------
                           ORCA GTO INTEGRAL CALCULATION
------------------------------------------------------------------------------
------------------------------------------------------------------------------
                   ___                                                        
                  /   \      - P O W E R E D   B Y -                         
                 /     \                                                     
                 |  |  |   _    _      __       _____    __    __             
                 |  |  |  | |  | |    /  \     |  _  \  |  |  /  |          
                  \  \/   | |  | |   /    \    | | | |  |  | /  /          
                 / \  \   | |__| |  /  /\  \   | |_| |  |  |/  /          
                |  |  |   |  __  | /  /__\  \  |    /   |      \           
                |  |  |   | |  | | |   __   |  |    \   |  |\   \          
                \     /   | |  | | |  |  |  |  | |\  \  |  | \   \       
                 \___/    |_|  |_| |__|  |__|  |_| \__\ |__|  \__/        
                                                                              
                      - O R C A' S   B I G   F R I E N D -                    
                                      &                                       
                       - I N T E G R A L  F E E D E R -                       
                                                                              
 v1 FN, 2020, v2 2021                                                         
------------------------------------------------------------------------------


Reading SHARK input file result.SHARKINP.tmp ... ok
----------------------
SHARK INTEGRAL PACKAGE
----------------------

Number of atoms                             ...      3
Number of basis functions                   ...     42
Number of shells                            ...     18
Maximum angular momentum                    ...      2
Integral batch strategy                     ... SHARK/LIBINT Hybrid
RI-J (if used) integral strategy            ... SPLIT-RIJ (Revised 2003 algorithm where possible)
Printlevel                                  ...      2
Contraction scheme used                     ... SEGMENTED contraction
Coulomb Range Separation                    ... NOT USED
Exchange Range Separation                   ... NOT USED
Finite Nucleus Model                        ... NOT USED
Auxiliary Coulomb fitting basis             ... NOT available
Auxiliary J/K fitting basis                 ... NOT available
Auxiliary Correlation fitting basis         ... NOT available
Auxiliary 'external' fitting basis          ... NOT available
Integral threshold                          ...     2.500000e-11
Primitive cut-off                           ...     2.500000e-12
Primitive pair pre-selection threshold      ...     2.500000e-12

Calculating pre-screening integrals         ... done (  0.0 sec) Dimension = 18
Organizing shell pair data                  ... done (  0.0 sec)
Shell pair information
Total number of shell pairs                 ...       171
Shell pairs after pre-screening             ...       170
Total number of primitive shell pairs       ...      1098
Primitive shell pairs kept                  ...       918
          la=0 lb=0:     44 shell pairs
          la=1 lb=0:     54 shell pairs
          la=1 lb=1:     21 shell pairs
          la=2 lb=0:     27 shell pairs
          la=2 lb=1:     18 shell pairs
          la=2 lb=2:      6 shell pairs

Calculating one electron integrals          ... done (  0.0 sec)
Calculating Nuclear repulsion               ... done (  0.0 sec) ENN=    105.618547701535 Eh

SHARK setup successfully completed in   0.1 seconds

Maximum memory used throughout the entire GTOINT-calculation: 7.5 MB
-------------------------------------------------------------------------------
                                 ORCA SCF
-------------------------------------------------------------------------------

------------
SCF SETTINGS
------------
Hamiltonian:
 Ab initio Hamiltonian  Method          .... Hartree-Fock(GTOs)


General Settings:
 Integral files         IntName         .... result
 Hartree-Fock type      HFTyp           .... RHF
 Total Charge           Charge          ....    0
 Multiplicity           Mult            ....    1
 Number of Electrons    NEL             ....   26
 Basis Dimension        Dim             ....   42
 Nuclear Repulsion      ENuc            ....    105.6185477015 Eh

Convergence Acceleration:
 DIIS                   CNVDIIS         .... on
   Start iteration      DIISMaxIt       ....    12
   Startup error        DIISStart       ....  0.200000
   # of expansion vecs  DIISMaxEq       ....     5
   Bias factor          DIISBfac        ....   1.050
   Max. coefficient     DIISMaxC        ....  10.000
 Trust-Rad. Augm. Hess. CNVTRAH         .... auto
   Auto Start mean grad. ratio tolernc. ....  1.125000
   Auto Start start iteration           ....    20
   Auto Start num. interpolation iter.  ....    10
   Max. Number of Micro iterations      ....    16
   Max. Number of Macro iterations      .... Maxiter - #DIIS iter
   Number of Davidson start vectors     ....     2
   Converg. threshold I  (grad. norm)   ....   1.000e-05
   Converg. threshold II (energy diff.) ....   1.000e-08
   Grad. Scal. Fac. for Micro threshold ....   0.100
   Minimum threshold for Micro iter.    ....   0.010
   NR start threshold (gradient norm)   ....   0.001
   Initial trust radius                 ....   0.400
   Minimum AH scaling param. (alpha)    ....   1.000
   Maximum AH scaling param. (alpha)    .... 1000.000
   Orbital update algorithm             .... Taylor
   White noise on init. David. guess    .... on
   Maximum white noise                  ....   0.010
   Quad. conv. algorithm                .... NR
 SOSCF                  CNVSOSCF        .... on
   Start iteration      SOSCFMaxIt      ....   150
   Startup grad/error   SOSCFStart      ....  0.003300
 Level Shifting         CNVShift        .... on
   Level shift para.    LevelShift      ....    0.2500
   Turn off err/grad.   ShiftErr        ....    0.0010
 Zerner damping         CNVZerner       .... off
 Static damping         CNVDamp         .... on
   Fraction old density DampFac         ....    0.7000
   Max. Damping (<1)    DampMax         ....    0.9800
   Min. Damping (>=0)   DampMin         ....    0.0000
   Turn off err/grad.   DampErr         ....    0.1000
 Fernandez-Rico         CNVRico         .... off

SCF Procedure:
 Maximum # iterations   MaxIter         ....   125
 SCF integral mode      SCFMode         .... Direct
   Integral package                     .... SHARK and LIBINT hybrid scheme
 Reset frequency        DirectResetFreq ....    20
 Integral Threshold     Thresh          ....  2.500e-11 Eh
 Primitive CutOff       TCut            ....  2.500e-12 Eh

Convergence Tolerance:
 Convergence Check Mode ConvCheckMode   .... Total+1el-Energy
 Convergence forced     ConvForced      .... 0
 Energy Change          TolE            ....  1.000e-08 Eh
 1-El. energy change                    ....  1.000e-05 Eh
 Orbital Gradient       TolG            ....  1.000e-05
 Orbital Rotation angle TolX            ....  1.000e-05
 DIIS Error             TolErr          ....  5.000e-07


Diagonalization of the overlap matrix:
Smallest eigenvalue                        ... 4.347e-03
Time for diagonalization                   ...    0.000 sec
Threshold for overlap eigenvalues          ... 1.000e-08
Number of eigenvalues below threshold      ... 0
Time for construction of square roots      ...    0.004 sec
Total time needed                          ...    0.005 sec

----------------------
SHARK INTEGRAL PACKAGE
----------------------

Number of atoms                             ...      3
Number of basis functions                   ...     42
Number of shells                            ...     18
Maximum angular momentum                    ...      2
Integral batch strategy                     ... SHARK/LIBINT Hybrid
RI-J (if used) integral strategy            ... SPLIT-RIJ (Revised 2003 algorithm where possible)
Printlevel                                  ...      2
Contraction scheme used                     ... SEGMENTED contraction
Coulomb Range Separation                    ... NOT USED
Exchange Range Separation                   ... NOT USED
Finite Nucleus Model                        ... NOT USED
Auxiliary Coulomb fitting basis             ... NOT available
Auxiliary J/K fitting basis                 ... NOT available
Auxiliary Correlation fitting basis         ... NOT available
Auxiliary 'external' fitting basis          ... NOT available
Integral threshold                          ...     2.500000e-11
Primitive cut-off                           ...     2.500000e-12
Primitive pair pre-selection threshold      ...     2.500000e-12

Time for model grid setup =    0.024 sec

------------------------------
INITIAL GUESS: MODEL POTENTIAL
------------------------------
Loading Hartree-Fock densities                     ... done
Calculating cut-offs                               ... done
Initializing the effective Hamiltonian             ... done
Setting up the integral package (SHARK)            ... done
Starting the Coulomb interaction                   ...     -> Generating integrals - 
    -> L=0 0 :     0.001 sec done=      1452 skipped=         0 prim-skipped=         0
    -> L=1 0 :     0.001 sec done=      1782 skipped=         0 prim-skipped=         0
    -> L=1 1 :     0.000 sec done=       693 skipped=         0 prim-skipped=         0
    -> L=2 0 :     0.000 sec done=       891 skipped=         0 prim-skipped=         0
    -> L=2 1 :     0.000 sec done=       594 skipped=         0 prim-skipped=         0
    -> L=2 2 :     0.000 sec done=       198 skipped=         0 prim-skipped=         0
done (   0.0 sec)
Reading the grid                                   ... done
Mapping shells                                     ... done
Starting the XC term evaluation                    ... done (   0.0 sec)
Transforming the Hamiltonian                       ... done (   0.0 sec)
Diagonalizing the Hamiltonian                      ... done (   0.0 sec)
Back transforming the eigenvectors                 ... done (   0.0 sec)
Now organizing SCF variables                       ... done
                      ------------------
                      INITIAL GUESS DONE (   0.1 sec)
                      ------------------
----------------------
INITIAL GUESS ORBITALS
----------------------
                      0         1         2         3         4         5   
                 -24.25745 -24.25737 -18.87240  -1.70587  -1.39337  -0.80534
                   2.00000   2.00000   2.00000   2.00000   2.00000   2.00000
                  --------  --------  --------  --------  --------  --------
  0O   1s         0.000019  0.000359 -0.994151 -0.162000  0.000001 -0.128988
  0O   2s        -0.000022 -0.000422 -0.039141  0.336724 -0.000000  0.317708
  0O   1pz       -0.000026  0.000076  0.003461 -0.123453 -0.172736  0.059399
  0O   1px       -0.000056 -0.000063 -0.003050  0.108779 -0.304425 -0.052309
  0O   1py        0.000019 -0.000057 -0.002573  0.091797  0.128450 -0.044114
  0O   3s         0.001251  0.023543 -0.003639  0.067516 -0.000018  0.218182
  0O   2pz        0.003459 -0.005879  0.001359 -0.000441 -0.020425  0.038269
  0O   2px        0.006894  0.004652 -0.001197  0.000391 -0.036004 -0.033705
  0O   2py       -0.002572  0.004371 -0.001010  0.000326  0.015184 -0.028439
  0O   1dz2       0.000914 -0.000027  0.000557 -0.000732  0.026895 -0.001939
  0O   1dxz       0.000461 -0.000089 -0.001999 -0.000000  0.013682  0.008593
  0O   1dyz      -0.000777  0.000167  0.001175 -0.017820 -0.023091  0.006148
  0O   1dx2y2    -0.001116 -0.000054 -0.001671  0.011983 -0.032698 -0.000350
  0O   1dxy      -0.000343  0.000066  0.001487 -0.000002 -0.010173 -0.006395
  1F   1s         0.739351  0.664647 -0.000140 -0.118617  0.148681  0.108333
  1F   2s         0.026429  0.022475 -0.000200  0.243574 -0.313887 -0.239710
  1F   1pz       -0.000085 -0.000059  0.000213 -0.016815 -0.028866  0.073964
  1F   1px       -0.002209 -0.001456 -0.002037 -0.162314  0.147332 -0.266070
  1F   1py        0.000063  0.000044 -0.000158  0.012504  0.021464 -0.054956
  1F   3s        -0.019140 -0.018964  0.008194  0.182857 -0.244331 -0.316398
  1F   2pz        0.000245  0.000440  0.000689 -0.004036 -0.009850  0.037335
  1F   2px        0.007308  0.006624 -0.006752 -0.052194  0.035018 -0.126368
  1F   2py       -0.000182 -0.000327 -0.000513  0.002999  0.007323 -0.027736
  1F   1dz2       0.000414  0.000584 -0.001995 -0.009986  0.004629 -0.010505
  1F   1dxz      -0.000357  0.000162 -0.000831  0.001850  0.005905 -0.006478
  1F   1dyz       0.000677 -0.000581 -0.000094  0.000599  0.001639  0.002154
  1F   1dx2y2    -0.001123 -0.000663  0.003513  0.016941 -0.009003  0.016902
  1F   1dxy       0.000266 -0.000121  0.000618 -0.001376 -0.004390  0.004806
  2F   1s        -0.664743  0.739264 -0.000140 -0.118618 -0.148678  0.108331
  2F   2s        -0.023898  0.025150 -0.000200  0.243574  0.313876 -0.239700
  2F   1pz       -0.001519  0.001249  0.001612  0.117200  0.121093  0.225965
  2F   1px       -0.000773  0.000640  0.000429  0.073861  0.015192  0.001798
  2F   1py        0.001129 -0.000929 -0.001199 -0.087150 -0.090040 -0.167971
  2F   3s         0.017023 -0.020886  0.008193  0.182868  0.244348 -0.316394
  2F   2pz        0.004901 -0.005414  0.005338  0.038146  0.029787  0.108051
  2F   2px        0.002420 -0.002998  0.001440  0.022140  0.000104 -0.001741
  2F   2py       -0.003644  0.004026 -0.003969 -0.028365 -0.022142 -0.080325
  2F   1dz2       0.000036 -0.000538  0.001787  0.006397  0.005786  0.010517
  2F   1dxz       0.000569 -0.000468  0.001093  0.010187 -0.000607  0.004217
  2F   1dyz      -0.001065  0.000492 -0.003342 -0.013470 -0.010579 -0.015894
  2F   1dx2y2     0.000578  0.000636 -0.001087 -0.002979 -0.003654 -0.008657
  2F   1dxy      -0.000422  0.000348 -0.000813 -0.007573  0.000453 -0.003136
                      6         7         8         9        10        11   
                  -0.74985  -0.73684  -0.71989  -0.47347  -0.41270  -0.35841
                   2.00000   2.00000   2.00000   2.00000   2.00000   2.00000
                  --------  --------  --------  --------  --------  --------
  0O   1s         0.000036 -0.042604  0.000009 -0.000013 -0.000024  0.083073
  0O   2s        -0.000071  0.081989 -0.000015  0.000018  0.000052 -0.176470
  0O   1pz       -0.273461  0.266117 -0.155364  0.000028 -0.018296 -0.284668
  0O   1px        0.000301 -0.234888 -0.273594 -0.000063 -0.032512  0.250807
  0O   1py       -0.367139 -0.198606  0.115479 -0.000020  0.013664  0.211594
  0O   3s        -0.000170  0.201690 -0.000048  0.000234  0.000148 -0.548397
  0O   2pz       -0.097746  0.082994 -0.029495 -0.000030  0.027786 -0.123744
  0O   2px        0.000117 -0.073237 -0.051910  0.000034  0.048856  0.109058
  0O   2py       -0.131256 -0.061976  0.021919  0.000031 -0.020646  0.091982
  0O   1dz2       0.024354 -0.010131  0.005979  0.024082  0.018736 -0.005934
  0O   1dxz      -0.012434  0.041950  0.003023  0.024502  0.009528  0.022308
  0O   1dyz       0.008435  0.012513 -0.005131  0.008346 -0.016099 -0.006398
  0O   1dx2y2     0.014044  0.010102 -0.007266  0.013896 -0.022801  0.014113
  0O   1dxy      -0.016619 -0.031231 -0.002254  0.032944 -0.007107 -0.016572
  1F   1s         0.000077 -0.043555 -0.088783  0.000006  0.015551 -0.022683
  1F   2s        -0.000165  0.092781  0.191838 -0.000011 -0.038139  0.069004
  1F   1pz       -0.202574  0.244963 -0.070501  0.304102  0.410856  0.285074
  1F   1px       -0.000253  0.165806  0.367479  0.000083  0.144234 -0.164420
  1F   1py       -0.271838 -0.182705  0.052372  0.408688 -0.305751 -0.211896
  1F   3s        -0.000272  0.132683  0.305272 -0.000100 -0.076700  0.095615
  1F   2pz       -0.097154  0.114466 -0.034438  0.182626  0.256800  0.203762
  1F   2px       -0.000107  0.081763  0.161400  0.000082  0.102415 -0.114633
  1F   2py       -0.130366 -0.085372  0.025583  0.245420 -0.191097 -0.151458
  1F   1dz2       0.001074  0.002148  0.005598  0.001721  0.006063 -0.005178
  1F   1dxz       0.017854 -0.015230  0.008455 -0.010034 -0.013112 -0.000391
  1F   1dyz       0.000368  0.002571  0.001168  0.000595 -0.003620  0.004622
  1F   1dx2y2     0.000627 -0.005274 -0.010403  0.000987 -0.008335  0.006193
  1F   1dxy       0.023967  0.011370 -0.006281 -0.013476  0.009748  0.000289
  2F   1s         0.000057 -0.043515  0.088806 -0.000002 -0.015539 -0.022693
  2F   2s        -0.000127  0.092690 -0.191881  0.000024  0.038100  0.069029
  2F   1pz       -0.202256 -0.043787  0.301537 -0.304003 -0.027882  0.219366
  2F   1px        0.000458 -0.343405  0.039837  0.000226  0.531053 -0.279817
  2F   1py       -0.272079  0.032082 -0.224246 -0.408762  0.020941 -0.163167
  2F   3s        -0.000167  0.132572 -0.305349 -0.000104  0.076657  0.095674
  2F   2pz       -0.096986 -0.023700  0.133591 -0.182600 -0.008137  0.154617
  2F   2px        0.000210 -0.161901  0.013419  0.000089  0.336021 -0.200977
  2F   2py       -0.130490  0.017391 -0.099360 -0.245446  0.006210 -0.115005
  2F   1dz2      -0.023016  0.005281  0.007621 -0.013714 -0.001118  0.004212
  2F   1dxz      -0.006653 -0.013661 -0.001723 -0.002179  0.015629  0.004392
  2F   1dyz      -0.007989 -0.000149 -0.012530 -0.004756 -0.000622 -0.003445
  2F   1dx2y2    -0.013275 -0.009121 -0.005680 -0.007914  0.002327 -0.005226
  2F   1dxy      -0.008992  0.010140  0.001278 -0.002929 -0.011620 -0.003271
                     12        13        14        15        16        17   
                  -0.13721   0.39320   0.44020   0.63522   0.67318   0.67377
                   2.00000   0.00000   0.00000   0.00000   0.00000   0.00000
                  --------  --------  --------  --------  --------  --------
  0O   1s         0.000005  0.000031 -0.093416  0.079721 -0.000017 -0.000014
  0O   2s        -0.000009 -0.000037  0.141132 -0.409196  0.000030  0.000083
  0O   1pz        0.373815  0.214254 -0.169676  0.436549  0.399852  0.386513
  0O   1px       -0.000009  0.377337  0.149777 -0.384387 -0.059538  0.606128
  0O   1py        0.502746 -0.159144  0.126247 -0.324293  0.608701 -0.198287
  0O   3s        -0.000118 -0.001834  4.692511  1.777104 -0.000656 -0.000604
  0O   2pz        0.283872  1.038245 -1.672788 -0.926440 -0.701902 -0.887780
  0O   2px       -0.000123  1.828238  1.474721  0.815765  0.140283 -1.429757
  0O   2py        0.381862 -0.772374  1.243752  0.688279 -1.111299  0.499629
  0O   1dz2       0.008667 -0.005551 -0.003926 -0.032432 -0.034396  0.141470
  0O   1dxz      -0.004404 -0.002860  0.011826  0.109087  0.003048  0.074029
  0O   1dyz       0.002998  0.004816 -0.022694 -0.115093  0.005156 -0.123897
  0O   1dx2y2     0.004996  0.006773  0.020456  0.125424  0.005505 -0.175665
  0O   1dxy      -0.005925  0.002090 -0.008839 -0.081163  0.019249 -0.052852
  1F   1s        -0.000007  0.082546  0.093465 -0.018431 -0.001101  0.011060
  1F   2s         0.000001 -0.165714 -0.141717  0.091574  0.006931 -0.069764
  1F   1pz       -0.227848 -0.148083  0.067250  0.073336  0.095790  0.098165
  1F   1px       -0.000028  0.203558  0.158083 -0.316902 -0.029278  0.298336
  1F   1py       -0.306433  0.110102 -0.050038 -0.054506  0.146828 -0.051458
  1F   3s         0.000170 -1.611055 -2.565464 -1.017569 -0.105744  1.078301
  1F   2pz       -0.203702 -0.207634  0.277613  0.002205  0.088683  0.004302
  1F   2px       -0.000093  0.855024  1.353651  0.360572  0.040162 -0.409924
  1F   2py       -0.273977  0.154510 -0.206350 -0.001463  0.118408  0.014750
  1F   1dz2       0.006946  0.023610  0.026728  0.105788 -0.016653 -0.099201
  1F   1dxz      -0.013008 -0.021325 -0.012537 -0.065780 -0.080928 -0.048327
  1F   1dyz       0.002419 -0.010667  0.046494 -0.004082 -0.008038 -0.011303
  1F   1dx2y2     0.004025 -0.034499 -0.074260 -0.180835 -0.032094  0.172126
  1F   1dxy      -0.017495  0.015807  0.009297  0.048862 -0.117115  0.018523
  2F   1s         0.000001 -0.082609  0.093406 -0.018441  0.001100 -0.011066
  2F   2s         0.000008  0.165766 -0.141547  0.091640 -0.006948  0.069784
  2F   1pz       -0.227843  0.203406 -0.096966  0.264347  0.084954  0.206620
  2F   1px       -0.000041 -0.106048 -0.131795  0.019516 -0.019915  0.202658
  2F   1py       -0.306434 -0.151286  0.072167 -0.196459  0.154848 -0.132136
  2F   3s        -0.000066  1.613113 -2.564647 -1.017943  0.106520 -1.077691
  2F   2pz       -0.203738  0.716861 -0.931254 -0.272188  0.118821 -0.299847
  2F   2px       -0.000031  0.041622 -0.777318 -0.122683  0.014024 -0.141558
  2F   2py       -0.273950 -0.532943  0.692426  0.202448  0.096051  0.240982
  2F   1dz2       0.019363  0.008430 -0.010429 -0.047437  0.111035 -0.075914
  2F   1dxz      -0.000379  0.037628 -0.031395 -0.143734  0.051277 -0.048365
  2F   1dyz       0.006726 -0.016867  0.078409  0.127605  0.019092  0.170665
  2F   1dx2y2     0.011184 -0.004369 -0.029080  0.005568  0.054444  0.054276
  2F   1dxy      -0.000515 -0.027966  0.023372  0.106879  0.057985  0.045387
                     18        19        20        21        22        23   
                   0.73218   0.97348   0.97402   1.04884   1.06484   1.07126
                   0.00000   0.00000   0.00000   0.00000   0.00000   0.00000
                  --------  --------  --------  --------  --------  --------
  0O   1s         0.104056 -0.000015 -0.007999  0.024609 -0.000043  0.000039
  0O   2s        -0.898902  0.001145  0.563725  0.157846 -0.000216  0.000068
  0O   1pz       -0.318628  0.127426 -0.092168  0.060242 -0.084431  0.000130
  0O   1px        0.280795  0.225040  0.080576 -0.053235  0.000095 -0.000154
  0O   1py        0.236912 -0.094789  0.068553 -0.045061 -0.113222 -0.000237
  0O   3s         2.248463  0.000463  0.160469  1.198202 -0.002084  0.001635
  0O   2pz        0.151403  0.111852  0.353646 -0.531608  0.562569 -0.000744
  0O   2px       -0.133549  0.195590 -0.312476  0.469312 -0.000647  0.000541
  0O   2py       -0.112557 -0.083164 -0.263276  0.397352  0.754220  0.001274
  0O   1dz2      -0.025048 -0.130689 -0.051902  0.014579  0.001819  0.086531
  0O   1dxz       0.096091 -0.066067  0.188124 -0.090714 -0.000850  0.087845
  0O   1dyz      -0.015409  0.111885 -0.106902 -0.202665  0.000970  0.029814
  0O   1dx2y2     0.052692  0.159090  0.154289  0.096181  0.000884  0.050050
  0O   1dxy      -0.071356  0.049172 -0.139784  0.067159 -0.001489  0.118484
  1F   1s         0.031608  0.047383  0.025512  0.009331 -0.000000 -0.000004
  1F   2s        -0.184058 -0.213681 -0.117513 -0.043584 -0.000013  0.000075
  1F   1pz        0.023526  0.033018  0.288371 -0.384610  0.356990  0.359783
  1F   1px       -0.167078 -0.469644 -0.267893 -0.421267  0.000604 -0.000498
  1F   1py       -0.017516 -0.024578 -0.214279  0.286171  0.478558  0.485608
  1F   3s        -0.525104 -0.465530 -0.002450 -0.569857  0.000906 -0.000782
  1F   2pz       -0.114947  0.103355 -0.529332  0.505750 -0.576977 -0.532342
  1F   2px        0.504606  1.194457  0.662082  0.783587 -0.001114  0.000849
  1F   2py        0.085432 -0.076871  0.393423 -0.376510 -0.773842 -0.718510
  1F   1dz2       0.100842  0.002537 -0.000905  0.002543  0.148603 -0.056393
  1F   1dxz       0.101166 -0.009547  0.030646 -0.025204  0.023992 -0.022827
  1F   1dyz      -0.006682  0.021087 -0.089257 -0.027341  0.051623 -0.019543
  1F   1dx2y2    -0.170661 -0.017143  0.054989  0.012915  0.085809 -0.032552
  1F   1dxy      -0.075184  0.007099 -0.022786  0.018848  0.032115 -0.030649
  2F   1s         0.031609 -0.047276  0.025699  0.009341 -0.000017  0.000010
  2F   2s        -0.184053  0.213147 -0.118359 -0.043574  0.000056 -0.000104
  2F   1pz        0.134234 -0.365184  0.299985  0.191762  0.356341 -0.359933
  2F   1px        0.028035 -0.118513 -0.249017  0.592510 -0.001121  0.000789
  2F   1py       -0.099876  0.271417 -0.223537 -0.140146  0.479907 -0.484629
  2F   3s        -0.525233  0.465391 -0.004345 -0.570084  0.001187 -0.000860
  2F   2pz       -0.420063  0.866569 -0.680395 -0.426267 -0.575839  0.532372
  2F   2px       -0.033123  0.520838  0.399250 -0.855984  0.001583 -0.001034
  2F   2py        0.312458 -0.644212  0.506673  0.313152 -0.775988  0.717072
  2F   1dz2      -0.116952 -0.003922 -0.018992  0.007509  0.018202 -0.011055
  2F   1dxz      -0.009694  0.009021  0.021312 -0.022696 -0.108845 -0.045867
  2F   1dyz       0.180382 -0.020326 -0.073371 -0.032072  0.006280 -0.003748
  2F   1dx2y2     0.094202  0.018943  0.077268  0.006201  0.010528 -0.006466
  2F   1dxy       0.007146 -0.006580 -0.015905  0.016550 -0.146233 -0.061796
                     24        25        26        27        28        29   
                   1.23135   1.36344   1.38645   1.46893   1.70670   1.71184
                   0.00000   0.00000   0.00000   0.00000   0.00000   0.00000
                  --------  --------  --------  --------  --------  --------
  0O   1s         0.000000  0.000069  0.026307 -0.000015  0.000006  0.026106
  0O   2s        -0.000050 -0.000707 -0.238675 -0.000003  0.000093 -0.002779
  0O   1pz       -0.104154 -0.188904 -0.134993  0.000085 -0.068943  0.212499
  0O   1px       -0.183418  0.000353  0.119418 -0.000006 -0.121536 -0.187308
  0O   1py        0.077368 -0.253388  0.101405 -0.000100  0.051173 -0.158147
  0O   3s         0.000124  0.003355  1.153005  0.000283 -0.000588  0.894940
  0O   2pz        0.521224  0.364018 -0.050433 -0.000221  0.495485 -0.127758
  0O   2px        0.918255 -0.000463  0.043692 -0.000056  0.872675  0.113045
  0O   2py       -0.387181  0.490893  0.035602  0.000217 -0.368291  0.095060
  0O   1dz2       0.016332 -0.323004 -0.035380  0.255002 -0.064571  0.054584
  0O   1dxz       0.008424  0.164749  0.165069  0.259451 -0.032940 -0.242664
  0O   1dyz      -0.014067 -0.111801  0.141245  0.088356  0.055468 -0.171431
  0O   1dx2y2    -0.019980 -0.186581 -0.021364  0.147275  0.078529  0.008396
  0O   1dxy      -0.006141  0.220531 -0.123416  0.348960  0.024446  0.180350
  1F   1s         0.003358 -0.000082 -0.034145  0.000014 -0.028200 -0.022867
  1F   2s        -0.054390  0.001089  0.483820 -0.000170  0.593348  0.421934
  1F   1pz        0.462908  0.053519 -0.066930 -0.099722  0.057592  0.152982
  1F   1px       -0.104647 -0.000286 -0.129441  0.000088 -0.099812 -0.181742
  1F   1py       -0.343912  0.072804  0.049377 -0.134171 -0.042757 -0.113702
  1F   3s        -0.401903 -0.001651 -0.851059  0.000097 -1.411709 -0.739941
  1F   2pz       -0.871572 -0.275204 -0.107647 -0.035094 -0.147695 -0.089136
  1F   2px        0.155932  0.000680  0.362227 -0.000063  0.533424  0.369609
  1F   2py        0.647481 -0.370333  0.081494 -0.047318  0.109703  0.066246
  1F   1dz2       0.004791 -0.353588 -0.143205  0.265602  0.087935 -0.091736
  1F   1dxz      -0.094872 -0.108135 -0.211301 -0.194079 -0.083983  0.333214
  1F   1dyz       0.064574 -0.121734  0.372628  0.091971 -0.562974  0.336074
  1F   1dx2y2    -0.047645 -0.203934  0.026578  0.153303  0.186344 -0.042695
  1F   1dxy       0.070423 -0.144317  0.157558 -0.261323  0.062513 -0.247712
  2F   1s        -0.003356 -0.000091 -0.034147  0.000010  0.028199 -0.022869
  2F   2s         0.054412  0.001411  0.483798 -0.000058 -0.593460  0.421836
  2F   1pz       -0.233469  0.054237  0.075622  0.099817 -0.094603  0.188494
  2F   1px        0.508733  0.000123  0.121517 -0.000158  0.034344 -0.119042
  2F   1py        0.173474  0.072307 -0.056382  0.134147  0.070420 -0.140131
  2F   3s         0.401783 -0.003126 -0.850929 -0.000318  1.412423 -0.739306
  2F   2pz        0.408355 -0.276590 -0.309451  0.034954  0.452879 -0.309156
  2F   2px       -0.971587  0.000274  0.006627  0.000055  0.004468 -0.018586
  2F   2py       -0.303614 -0.369441  0.231499  0.047312 -0.336872  0.229817
  2F   1dz2      -0.042544  0.023909  0.221906 -0.343058  0.066101 -0.055853
  2F   1dxz       0.075835  0.275396 -0.025860  0.115453  0.162609  0.351504
  2F   1dyz      -0.032669  0.008134  0.057646 -0.119133  0.431044  0.304981
  2F   1dx2y2     0.092858  0.012366 -0.419551 -0.197915 -0.373523 -0.086279
  2F   1dxy      -0.056164  0.370558  0.017849  0.155194 -0.120556 -0.261029
                     30        31        32        33        34        35   
                   1.89353   1.91739   1.97982   2.08225   2.39967   2.60971
                   0.00000   0.00000   0.00000   0.00000   0.00000   0.00000
                  --------  --------  --------  --------  --------  --------
  0O   1s         0.000007  0.000009 -0.000027  0.014094  0.055807 -0.000013
  0O   2s         0.000369  0.000055 -0.000696  0.734258  0.118221  0.000024
  0O   1pz       -0.169968 -0.014090  0.000059  0.031235  0.320107  0.277299
  0O   1px       -0.000071 -0.023854  0.000229 -0.027439 -0.282061 -0.000187
  0O   1py       -0.228559  0.009234 -0.000020 -0.023118 -0.237859  0.373282
  0O   3s        -0.002306 -0.000139  0.003842 -6.363492 -4.196126  0.000951
  0O   2pz       -0.110977 -1.179421  0.001189  1.691811  1.419637  0.679621
  0O   2px        0.007459 -2.077810  0.004920 -1.490801 -1.250949 -0.000013
  0O   2py       -0.159986  0.875920 -0.000853 -1.257920 -1.055351  0.914946
  0O   1dz2      -0.336454  0.247577 -0.098909  0.043147 -0.010773 -0.832239
  0O   1dxz       0.170199  0.127023 -0.100304 -0.141635  0.225923  0.423429
  0O   1dyz      -0.115481 -0.214254 -0.033883  0.171846  1.136730 -0.289555
  0O   1dx2y2    -0.192679 -0.303548 -0.055979 -0.177850 -0.665030 -0.480976
  0O   1dxy       0.229782 -0.093530 -0.134757  0.105191 -0.167778  0.569126
  1F   1s        -0.000083  0.022813 -0.000038  0.018862 -0.019955 -0.000002
  1F   2s         0.002502 -0.718570  0.001658 -1.012091  0.012558  0.000073
  1F   1pz       -0.103177 -0.089875  0.106248  0.029581 -0.041892 -0.027103
  1F   1px        0.000356 -0.117766  0.000385 -0.024326 -0.425075 -0.000131
  1F   1py       -0.139501  0.066462  0.142629 -0.021829  0.031141 -0.036530
  1F   3s        -0.008987  2.704075 -0.007431  4.126999  2.514709  0.000116
  1F   2pz        0.109636  0.314767 -0.123607 -0.206294 -0.314564 -0.444225
  1F   2px        0.002814 -0.848053  0.002381 -1.483282 -0.821260 -0.000153
  1F   2py        0.150170 -0.233629 -0.165253  0.153151  0.233682 -0.597072
  1F   1dz2       0.429353  0.219788  0.547425 -0.052658 -0.041465  0.139242
  1F   1dxz      -0.224159 -0.222493  0.193315 -0.063250  0.264812  0.536017
  1F   1dyz       0.150637 -0.304143  0.190517  0.419404 -0.175759  0.048353
  1F   1dx2y2     0.249066 -0.190918  0.316711 -0.160444  0.177600  0.080557
  1F   1dxy      -0.302906  0.164539  0.259187  0.047436 -0.196564  0.720281
  2F   1s         0.000097 -0.022826  0.000032  0.018858 -0.019951  0.000011
  2F   2s        -0.003143  0.718752 -0.000902 -1.012044  0.012514 -0.000036
  2F   1pz       -0.103468 -0.059701 -0.105970  0.028279  0.307605 -0.027430
  2F   1px        0.000625 -0.144700  0.000382 -0.026532  0.190868 -0.000144
  2F   1py       -0.139419  0.043185 -0.142694 -0.021011 -0.228700 -0.036419
  2F   3s         0.011863 -2.704041  0.002831  4.126932  2.514516 -0.001307
  2F   2pz        0.114282 -0.745793  0.123993  1.053449  0.516359 -0.444581
  2F   2px       -0.000085  0.086962 -0.000672  0.736674  0.643193 -0.000441
  2F   2py        0.146814  0.555992  0.164879 -0.783324 -0.384142 -0.597135
  2F   1dz2       0.437615  0.082046  0.070007  0.095085 -0.098403 -0.655972
  2F   1dxz      -0.218073  0.373339  0.435187  0.012251  0.235738 -0.273402
  2F   1dyz       0.152047  0.050664  0.023723  0.292030 -0.127087 -0.227600
  2F   1dx2y2     0.253595 -0.167892  0.041085 -0.340503  0.246484 -0.378970
  2F   1dxy      -0.290452 -0.277697  0.586935 -0.008324 -0.175259 -0.367016
                     36        37        38        39        40        41   
                   2.65447   2.82974   2.85310   3.02530   3.34412   3.55597
                   0.00000   0.00000   0.00000   0.00000   0.00000   0.00000
                  --------  --------  --------  --------  --------  --------
  0O   1s         0.000006 -0.000029  0.000001  0.039297 -0.085612  0.000001
  0O   2s         0.000034  0.000070  0.000115  0.033998 -2.096890  0.000007
  0O   1pz        0.353192  0.000839  0.351387 -0.166535  0.554702 -0.424264
  0O   1px        0.622553  0.001170  0.619046  0.146791 -0.488721 -0.747713
  0O   1py       -0.262758 -0.000497 -0.261066  0.123835 -0.412492  0.315466
  0O   3s        -0.000240  0.001183  0.000299 -0.804523 -3.849554 -0.000183
  0O   2pz        0.572352  0.001511  0.666166 -0.324273  0.646774 -0.411723
  0O   2px        1.008805  0.002390  1.173233  0.285929 -0.569861 -0.725759
  0O   2py       -0.425844 -0.000730 -0.494560  0.241105 -0.480931  0.306125
  0O   1dz2      -0.121858  0.721869 -0.830946  0.348562  0.097267 -0.242339
  0O   1dxz      -0.062379  0.736590 -0.422568 -1.354294 -0.379314 -0.123226
  0O   1dyz       0.104261  0.252006  0.711783  0.089088  0.019664  0.208121
  0O   1dx2y2     0.147488  0.419560  1.007788 -0.656156 -0.180257  0.294702
  0O   1dxy       0.045487  0.990039  0.312485  1.008077  0.282166  0.091723
  1F   1s         0.018710  0.000040  0.018543 -0.000373 -0.036516 -0.032152
  1F   2s        -0.155066 -0.000194 -0.093879  0.236019 -0.748945 -1.268781
  1F   1pz        0.180199 -0.075403  0.012753  0.220059  0.083637  0.054356
  1F   1px        0.209102  0.001032  0.524141 -0.266802 -0.090762  0.274405
  1F   1py       -0.133927 -0.101321 -0.009282 -0.163731 -0.062239 -0.040418
  1F   3s        -0.783496 -0.004309 -2.089163  0.320341  3.053998  2.745004
  1F   2pz       -0.629823 -0.354974  0.251937  0.453558  0.079107 -0.206129
  1F   2px        0.325936  0.001999  0.999180 -0.144382 -1.811873 -1.771522
  1F   2py        0.468896 -0.476840 -0.186777 -0.337777 -0.058813  0.153221
  1F   1dz2       0.292937 -0.145327  0.271073  0.061338 -0.600042 -0.381269
  1F   1dxz       0.625469  0.576916 -0.462967 -0.733673 -0.204340  0.170707
  1F   1dyz      -0.269557 -0.050671 -0.023696 -0.171043  0.080729 -0.263132
  1F   1dx2y2    -0.345083 -0.085141 -0.454659 -0.003546  0.990654  0.818628
  1F   1dxy      -0.465977  0.775532  0.343070  0.546345  0.151970 -0.126866
  2F   1s        -0.018709 -0.000036 -0.018541 -0.000373 -0.036519  0.032151
  2F   2s         0.155087  0.000059  0.093967  0.236048 -0.748926  1.268727
  2F   1pz        0.098133  0.075713  0.392175  0.275363  0.096604  0.189468
  2F   1px        0.281308  0.000592  0.189677 -0.169653 -0.068025  0.155334
  2F   1py       -0.073159  0.101057 -0.291785 -0.204735 -0.071833 -0.140905
  2F   3s         0.783758  0.002943  2.088729  0.320883  3.054222 -2.744762
  2F   2pz        0.456609  0.355502  0.671045  0.260877  1.397269 -1.271474
  2F   2px       -0.631642  0.000684  0.628855 -0.484756  0.511125 -0.832568
  2F   2py       -0.339694  0.475942 -0.500587 -0.193404 -1.038971  0.945552
  2F   1dz2       0.502204  0.804186 -0.007659  0.264952  0.525342 -0.180272
  2F   1dxz      -0.221485  0.094246  0.597003 -0.630447  0.368151 -0.456324
  2F   1dyz      -0.413374  0.278805 -0.203850 -0.345214 -0.885459  0.745408
  2F   1dx2y2    -0.621958  0.464301  0.132211 -0.250051 -0.377407 -0.135747
  2F   1dxy       0.164467  0.124444 -0.444508  0.468957 -0.273883  0.339363
--------------
SCF ITERATIONS
--------------
               ***  Starting incremental Fock matrix formation  ***
===> SHARK/Fock/General/Sym: HFTyp=1 DoJ=1 DoX=1 facj= 2.000 facx=-0.500 NFock=1 NumOp=1 NMat=1 RangeSep=0 GeneralContraction=0 PGCOpt=0
    -> L=0 0 0 0:     0.001 sec done=       985 (= 99.5%) skipped=         5 
    -> L=1 0 0 0:     0.003 sec done=      2374 (= 99.9%) skipped=         2 
    -> L=1 0 1 0:     0.003 sec done=      1485 (=100.0%) skipped=         0 
    -> L=1 1 0 0:     0.002 sec done=       924 (=100.0%) skipped=         0 
    -> L=1 1 1 0:     0.003 sec done=      1134 (=100.0%) skipped=         0 
    -> L=1 1 1 1:     0.001 sec done=       231 (=100.0%) skipped=         0 
    -> L=2 0 0 0:     0.002 sec done=      1188 (=100.0%) skipped=         0 
    -> RHF LowL loop time =     0.015 sec
    -> L=2 0 1 0:     0.003 sec done=      1458 (=100.0%) skipped=         0 
    -> L=2 0 1 1:     0.002 sec done=       567 (=100.0%) skipped=         0 
    -> L=2 0 2 0:     0.001 sec done=       378 (=100.0%) skipped=         0 
    -> L=2 1 0 0:     0.001 sec done=       792 (=100.0%) skipped=         0 
    -> L=2 1 1 0:     0.003 sec done=       972 (=100.0%) skipped=         0 
    -> L=2 1 2 0:     0.002 sec done=       486 (=100.0%) skipped=         0 
    -> L=2 2 0 0:     0.001 sec done=       264 (=100.0%) skipped=         0 
    ->Total SHARK integral loop time =    0.014 sec
    -> L=0 1 2 2:     0.005 sec done=       324 (=100.0%) skipped=         0 
    -> L=0 2 2 2:     0.001 sec done=       162 (=100.0%) skipped=         0 
    -> L=1 1 1 2:     0.002 sec done=       378 (=100.0%) skipped=         0 
    -> L=1 1 2 2:     0.001 sec done=       126 (=100.0%) skipped=         0 
    -> L=1 2 1 2:     0.001 sec done=       171 (=100.0%) skipped=         0 
    -> L=1 2 2 2:     0.001 sec done=       108 (=100.0%) skipped=         0 
    -> L=2 2 2 2:     0.000 sec done=        21 (=100.0%) skipped=         0 
    ->Total LIBINT loop time =    0.012 sec

                         ----------------------------
                         !        ITERATION     0   !
                         ----------------------------
   Total Energy        :    -272.757170172193 Eh
   Energy Change       :    -272.757170172193 Eh
   MAX-DP              :       0.072618624654
   RMS-DP              :       0.003508416894
   Actual Damping      :       0.7000
   Actual Level Shift  :       0.2500 Eh

===> SHARK/Fock/General/Sym: HFTyp=1 DoJ=1 DoX=1 facj= 2.000 facx=-0.500 NFock=1 NumOp=1 NMat=1 RangeSep=0 GeneralContraction=0 PGCOpt=0
    -> L=0 0 0 0:     0.001 sec done=       980 (= 99.0%) skipped=        10 
    -> L=1 0 0 0:     0.003 sec done=      2368 (= 99.7%) skipped=         8 
    -> L=1 0 1 0:     0.003 sec done=      1484 (= 99.9%) skipped=         1 
    -> L=1 1 0 0:     0.002 sec done=       924 (=100.0%) skipped=         0 
    -> L=1 1 1 0:     0.003 sec done=      1134 (=100.0%) skipped=         0 
    -> L=1 1 1 1:     0.001 sec done=       231 (=100.0%) skipped=         0 
    -> L=2 0 0 0:     0.002 sec done=      1184 (= 99.7%) skipped=         4 
    -> RHF LowL loop time =     0.015 sec
    -> L=2 0 1 0:     0.003 sec done=      1458 (=100.0%) skipped=         0 
    -> L=2 0 1 1:     0.002 sec done=       567 (=100.0%) skipped=         0 
    -> L=2 0 2 0:     0.001 sec done=       378 (=100.0%) skipped=         0 
    -> L=2 1 0 0:     0.001 sec done=       792 (=100.0%) skipped=         0 
    -> L=2 1 1 0:     0.003 sec done=       972 (=100.0%) skipped=         0 
    -> L=2 1 2 0:     0.002 sec done=       486 (=100.0%) skipped=         0 
    -> L=2 2 0 0:     0.001 sec done=       264 (=100.0%) skipped=         0 
    ->Total SHARK integral loop time =    0.014 sec
    -> L=0 1 2 2:     0.001 sec done=       324 (=100.0%) skipped=         0 
    -> L=0 2 2 2:     0.001 sec done=       162 (=100.0%) skipped=         0 
    -> L=1 1 1 2:     0.002 sec done=       378 (=100.0%) skipped=         0 
    -> L=1 1 2 2:     0.001 sec done=       126 (=100.0%) skipped=         0 
    -> L=1 2 1 2:     0.001 sec done=       171 (=100.0%) skipped=         0 
    -> L=1 2 2 2:     0.001 sec done=       108 (=100.0%) skipped=         0 
    -> L=2 2 2 2:     0.000 sec done=        21 (=100.0%) skipped=         0 
    ->Total LIBINT loop time =    0.007 sec

                         ----------------------------
                         !        ITERATION     1   !
                         ----------------------------
   Total Energy        :    -272.768657774875 Eh
   Energy Change       :      -0.011487602682 Eh
   MAX-DP              :       0.060057860697
   RMS-DP              :       0.002768867043
   Actual Damping      :       0.7000
   Actual Level Shift  :       0.2500 Eh

===> SHARK/Fock/General/Sym: HFTyp=1 DoJ=1 DoX=1 facj= 2.000 facx=-0.500 NFock=1 NumOp=1 NMat=1 RangeSep=0 GeneralContraction=0 PGCOpt=0
    -> L=0 0 0 0:     0.001 sec done=       980 (= 99.0%) skipped=        10 
    -> L=1 0 0 0:     0.003 sec done=      2368 (= 99.7%) skipped=         8 
    -> L=1 0 1 0:     0.003 sec done=      1482 (= 99.8%) skipped=         3 
    -> L=1 1 0 0:     0.002 sec done=       924 (=100.0%) skipped=         0 
    -> L=1 1 1 0:     0.003 sec done=      1134 (=100.0%) skipped=         0 
    -> L=1 1 1 1:     0.001 sec done=       231 (=100.0%) skipped=         0 
    -> L=2 0 0 0:     0.002 sec done=      1184 (= 99.7%) skipped=         4 
    -> RHF LowL loop time =     0.015 sec
    -> L=2 0 1 0:     0.003 sec done=      1458 (=100.0%) skipped=         0 
    -> L=2 0 1 1:     0.002 sec done=       567 (=100.0%) skipped=         0 
    -> L=2 0 2 0:     0.001 sec done=       378 (=100.0%) skipped=         0 
    -> L=2 1 0 0:     0.001 sec done=       792 (=100.0%) skipped=         0 
    -> L=2 1 1 0:     0.003 sec done=       972 (=100.0%) skipped=         0 
    -> L=2 1 2 0:     0.002 sec done=       486 (=100.0%) skipped=         0 
    -> L=2 2 0 0:     0.000 sec done=       264 (=100.0%) skipped=         0 
    ->Total SHARK integral loop time =    0.014 sec
    -> L=0 1 2 2:     0.001 sec done=       324 (=100.0%) skipped=         0 
    -> L=0 2 2 2:     0.001 sec done=       162 (=100.0%) skipped=         0 
    -> L=1 1 1 2:     0.002 sec done=       378 (=100.0%) skipped=         0 
    -> L=1 1 2 2:     0.001 sec done=       126 (=100.0%) skipped=         0 
    -> L=1 2 1 2:     0.001 sec done=       171 (=100.0%) skipped=         0 
    -> L=1 2 2 2:     0.001 sec done=       108 (=100.0%) skipped=         0 
    -> L=2 2 2 2:     0.000 sec done=        21 (=100.0%) skipped=         0 
    ->Total LIBINT loop time =    0.007 sec
                               ***Turning on DIIS***

                         ----------------------------
                         !        ITERATION     2   !
                         ----------------------------
   Total Energy        :    -272.776479659396 Eh
   Energy Change       :      -0.007821884521 Eh
   MAX-DP              :       0.144714658161
   RMS-DP              :       0.006516511494
   Actual Damping      :       0.0000
   Actual Level Shift  :       0.2500 Eh
   DIIS-Error          :       0.043997716124

===> SHARK/Fock/General/Sym: HFTyp=1 DoJ=1 DoX=1 facj= 2.000 facx=-0.500 NFock=1 NumOp=1 NMat=1 RangeSep=0 GeneralContraction=0 PGCOpt=0
    -> L=0 0 0 0:     0.001 sec done=       980 (= 99.0%) skipped=        10 
    -> L=1 0 0 0:     0.003 sec done=      2368 (= 99.7%) skipped=         8 
    -> L=1 0 1 0:     0.003 sec done=      1484 (= 99.9%) skipped=         1 
    -> L=1 1 0 0:     0.002 sec done=       924 (=100.0%) skipped=         0 
    -> L=1 1 1 0:     0.003 sec done=      1134 (=100.0%) skipped=         0 
    -> L=1 1 1 1:     0.001 sec done=       231 (=100.0%) skipped=         0 
    -> L=2 0 0 0:     0.002 sec done=      1188 (=100.0%) skipped=         0 
    -> RHF LowL loop time =     0.015 sec
    -> L=2 0 1 0:     0.003 sec done=      1458 (=100.0%) skipped=         0 
    -> L=2 0 1 1:     0.002 sec done=       567 (=100.0%) skipped=         0 
    -> L=2 0 2 0:     0.001 sec done=       378 (=100.0%) skipped=         0 
    -> L=2 1 0 0:     0.001 sec done=       792 (=100.0%) skipped=         0 
    -> L=2 1 1 0:     0.003 sec done=       972 (=100.0%) skipped=         0 
    -> L=2 1 2 0:     0.002 sec done=       486 (=100.0%) skipped=         0 
    -> L=2 2 0 0:     0.000 sec done=       264 (=100.0%) skipped=         0 
    ->Total SHARK integral loop time =    0.014 sec
    -> L=0 1 2 2:     0.001 sec done=       324 (=100.0%) skipped=         0 
    -> L=0 2 2 2:     0.001 sec done=       162 (=100.0%) skipped=         0 
    -> L=1 1 1 2:     0.002 sec done=       378 (=100.0%) skipped=         0 
    -> L=1 1 2 2:     0.001 sec done=       126 (=100.0%) skipped=         0 
    -> L=1 2 1 2:     0.001 sec done=       171 (=100.0%) skipped=         0 
    -> L=1 2 2 2:     0.001 sec done=       108 (=100.0%) skipped=         0 
    -> L=2 2 2 2:     0.000 sec done=        21 (=100.0%) skipped=         0 
    ->Total LIBINT loop time =    0.007 sec

                         ----------------------------
                         !        ITERATION     3   !
                         ----------------------------
   Total Energy        :    -272.788363049841 Eh
   Energy Change       :      -0.011883390445 Eh
   MAX-DP              :       0.007410439035
   RMS-DP              :       0.000890627696
   Actual Damping      :       0.0000
   Actual Level Shift  :       0.2500 Eh
   DIIS-Error          :       0.010681822319
   DIIS coefficients:
      0.01591   0.98409

===> SHARK/Fock/General/Sym: HFTyp=1 DoJ=1 DoX=1 facj= 2.000 facx=-0.500 NFock=1 NumOp=1 NMat=1 RangeSep=0 GeneralContraction=0 PGCOpt=0
    -> L=0 0 0 0:     0.001 sec done=       978 (= 98.8%) skipped=        12 
    -> L=1 0 0 0:     0.003 sec done=      2367 (= 99.6%) skipped=         9 
    -> L=1 0 1 0:     0.003 sec done=      1482 (= 99.8%) skipped=         3 
    -> L=1 1 0 0:     0.002 sec done=       924 (=100.0%) skipped=         0 
    -> L=1 1 1 0:     0.003 sec done=      1134 (=100.0%) skipped=         0 
    -> L=1 1 1 1:     0.001 sec done=       231 (=100.0%) skipped=         0 
    -> L=2 0 0 0:     0.002 sec done=      1178 (= 99.2%) skipped=        10 
    -> RHF LowL loop time =     0.015 sec
    -> L=2 0 1 0:     0.003 sec done=      1458 (=100.0%) skipped=         0 
    -> L=2 0 1 1:     0.002 sec done=       567 (=100.0%) skipped=         0 
    -> L=2 0 2 0:     0.001 sec done=       378 (=100.0%) skipped=         0 
    -> L=2 1 0 0:     0.001 sec done=       792 (=100.0%) skipped=         0 
    -> L=2 1 1 0:     0.003 sec done=       972 (=100.0%) skipped=         0 
    -> L=2 1 2 0:     0.002 sec done=       486 (=100.0%) skipped=         0 
    -> L=2 2 0 0:     0.000 sec done=       264 (=100.0%) skipped=         0 
    ->Total SHARK integral loop time =    0.014 sec
    -> L=0 1 2 2:     0.001 sec done=       324 (=100.0%) skipped=         0 
    -> L=0 2 2 2:     0.001 sec done=       162 (=100.0%) skipped=         0 
    -> L=1 1 1 2:     0.002 sec done=       378 (=100.0%) skipped=         0 
    -> L=1 1 2 2:     0.001 sec done=       126 (=100.0%) skipped=         0 
    -> L=1 2 1 2:     0.001 sec done=       171 (=100.0%) skipped=         0 
    -> L=1 2 2 2:     0.001 sec done=       108 (=100.0%) skipped=         0 
    -> L=2 2 2 2:     0.000 sec done=        21 (=100.0%) skipped=         0 
    ->Total LIBINT loop time =    0.007 sec
                      *** Initiating the SOSCF procedure ***
                           *** Shutting down DIIS ***
                      *** Re-Reading the Fockian *** 
                      *** Removing any level shift *** 

                         ----------------------------
                         !        ITERATION     4   !
                         ----------------------------
   Total Energy        :    -272.802553605836 Eh
   Energy Change       :      -0.014190555995 Eh
   MAX-DP              :       0.009567401958
   RMS-DP              :       0.000395700210
   Orbital gradient    :       0.001675505119
   Orbital Rotation    :       0.001675505119
   Actual Damping      :       0.0000

               *** Restarting incremental Fock matrix formation ***
===> SHARK/Fock/General/Sym: HFTyp=1 DoJ=1 DoX=1 facj= 2.000 facx=-0.500 NFock=1 NumOp=1 NMat=1 RangeSep=0 GeneralContraction=0 PGCOpt=0
    -> L=0 0 0 0:     0.001 sec done=       985 (= 99.5%) skipped=         5 
    -> L=1 0 0 0:     0.003 sec done=      2374 (= 99.9%) skipped=         2 
    -> L=1 0 1 0:     0.003 sec done=      1485 (=100.0%) skipped=         0 
    -> L=1 1 0 0:     0.002 sec done=       924 (=100.0%) skipped=         0 
    -> L=1 1 1 0:     0.003 sec done=      1134 (=100.0%) skipped=         0 
    -> L=1 1 1 1:     0.001 sec done=       231 (=100.0%) skipped=         0 
    -> L=2 0 0 0:     0.002 sec done=      1188 (=100.0%) skipped=         0 
    -> RHF LowL loop time =     0.015 sec
    -> L=2 0 1 0:     0.003 sec done=      1458 (=100.0%) skipped=         0 
    -> L=2 0 1 1:     0.002 sec done=       567 (=100.0%) skipped=         0 
    -> L=2 0 2 0:     0.001 sec done=       378 (=100.0%) skipped=         0 
    -> L=2 1 0 0:     0.001 sec done=       792 (=100.0%) skipped=         0 
    -> L=2 1 1 0:     0.003 sec done=       972 (=100.0%) skipped=         0 
    -> L=2 1 2 0:     0.002 sec done=       486 (=100.0%) skipped=         0 
    -> L=2 2 0 0:     0.000 sec done=       264 (=100.0%) skipped=         0 
    ->Total SHARK integral loop time =    0.014 sec
    -> L=0 1 2 2:     0.001 sec done=       324 (=100.0%) skipped=         0 
    -> L=0 2 2 2:     0.001 sec done=       162 (=100.0%) skipped=         0 
    -> L=1 1 1 2:     0.002 sec done=       378 (=100.0%) skipped=         0 
    -> L=1 1 2 2:     0.001 sec done=       126 (=100.0%) skipped=         0 
    -> L=1 2 1 2:     0.001 sec done=       171 (=100.0%) skipped=         0 
    -> L=1 2 2 2:     0.001 sec done=       108 (=100.0%) skipped=         0 
    -> L=2 2 2 2:     0.000 sec done=        21 (=100.0%) skipped=         0 
    ->Total LIBINT loop time =    0.007 sec

                         ----------------------------
                         !        ITERATION     5   !
                         ----------------------------
   Total Energy        :    -272.794759603972 Eh
   Energy Change       :       0.007794001865 Eh
   MAX-DP              :       0.003236463768
   RMS-DP              :       0.000125846925
   Orbital gradient    :       0.000531236013
   Orbital Rotation    :       0.000383101792
   Actual Damping      :       0.0000

===> SHARK/Fock/General/Sym: HFTyp=1 DoJ=1 DoX=1 facj= 2.000 facx=-0.500 NFock=1 NumOp=1 NMat=1 RangeSep=0 GeneralContraction=0 PGCOpt=0
    -> L=0 0 0 0:     0.001 sec done=       962 (= 97.2%) skipped=        28 
    -> L=1 0 0 0:     0.003 sec done=      2338 (= 98.4%) skipped=        38 
    -> L=1 0 1 0:     0.003 sec done=      1482 (= 99.8%) skipped=         3 
    -> L=1 1 0 0:     0.002 sec done=       922 (= 99.8%) skipped=         2 
    -> L=1 1 1 0:     0.003 sec done=      1134 (=100.0%) skipped=         0 
    -> L=1 1 1 1:     0.001 sec done=       231 (=100.0%) skipped=         0 
    -> L=2 0 0 0:     0.002 sec done=      1164 (= 98.0%) skipped=        24 
    -> RHF LowL loop time =     0.015 sec
    -> L=2 0 1 0:     0.003 sec done=      1456 (= 99.9%) skipped=         2 
    -> L=2 0 1 1:     0.002 sec done=       567 (=100.0%) skipped=         0 
    -> L=2 0 2 0:     0.001 sec done=       378 (=100.0%) skipped=         0 
    -> L=2 1 0 0:     0.001 sec done=       788 (= 99.5%) skipped=         4 
    -> L=2 1 1 0:     0.003 sec done=       972 (=100.0%) skipped=         0 
    -> L=2 1 2 0:     0.002 sec done=       486 (=100.0%) skipped=         0 
    -> L=2 2 0 0:     0.001 sec done=       264 (=100.0%) skipped=         0 
    ->Total SHARK integral loop time =    0.014 sec
    -> L=0 1 2 2:     0.001 sec done=       324 (=100.0%) skipped=         0 
    -> L=0 2 2 2:     0.001 sec done=       162 (=100.0%) skipped=         0 
    -> L=1 1 1 2:     0.002 sec done=       378 (=100.0%) skipped=         0 
    -> L=1 1 2 2:     0.001 sec done=       126 (=100.0%) skipped=         0 
    -> L=1 2 1 2:     0.001 sec done=       171 (=100.0%) skipped=         0 
    -> L=1 2 2 2:     0.001 sec done=       108 (=100.0%) skipped=         0 
    -> L=2 2 2 2:     0.000 sec done=        21 (=100.0%) skipped=         0 
    ->Total LIBINT loop time =    0.007 sec

                         ----------------------------
                         !        ITERATION     6   !
                         ----------------------------
   Total Energy        :    -272.794762043198 Eh
   Energy Change       :      -0.000002439226 Eh
   MAX-DP              :       0.001538446901
   RMS-DP              :       0.000058604811
   Orbital gradient    :       0.000162126174
   Orbital Rotation    :       0.000139842865
   Actual Damping      :       0.0000

===> SHARK/Fock/General/Sym: HFTyp=1 DoJ=1 DoX=1 facj= 2.000 facx=-0.500 NFock=1 NumOp=1 NMat=1 RangeSep=0 GeneralContraction=0 PGCOpt=0
    -> L=0 0 0 0:     0.001 sec done=       956 (= 96.6%) skipped=        34 
    -> L=1 0 0 0:     0.003 sec done=      2324 (= 97.8%) skipped=        52 
    -> L=1 0 1 0:     0.003 sec done=      1482 (= 99.8%) skipped=         3 
    -> L=1 1 0 0:     0.002 sec done=       920 (= 99.6%) skipped=         4 
    -> L=1 1 1 0:     0.003 sec done=      1134 (=100.0%) skipped=         0 
    -> L=1 1 1 1:     0.001 sec done=       231 (=100.0%) skipped=         0 
    -> L=2 0 0 0:     0.001 sec done=      1144 (= 96.3%) skipped=        44 
    -> RHF LowL loop time =     0.015 sec
    -> L=2 0 1 0:     0.003 sec done=      1450 (= 99.5%) skipped=         8 
    -> L=2 0 1 1:     0.002 sec done=       567 (=100.0%) skipped=         0 
    -> L=2 0 2 0:     0.001 sec done=       378 (=100.0%) skipped=         0 
    -> L=2 1 0 0:     0.001 sec done=       779 (= 98.4%) skipped=        13 
    -> L=2 1 1 0:     0.003 sec done=       972 (=100.0%) skipped=         0 
    -> L=2 1 2 0:     0.002 sec done=       486 (=100.0%) skipped=         0 
    -> L=2 2 0 0:     0.000 sec done=       260 (= 98.5%) skipped=         4 
    ->Total SHARK integral loop time =    0.014 sec
    -> L=0 1 2 2:     0.001 sec done=       324 (=100.0%) skipped=         0 
    -> L=0 2 2 2:     0.001 sec done=       162 (=100.0%) skipped=         0 
    -> L=1 1 1 2:     0.002 sec done=       378 (=100.0%) skipped=         0 
    -> L=1 1 2 2:     0.001 sec done=       126 (=100.0%) skipped=         0 
    -> L=1 2 1 2:     0.001 sec done=       171 (=100.0%) skipped=         0 
    -> L=1 2 2 2:     0.001 sec done=       108 (=100.0%) skipped=         0 
    -> L=2 2 2 2:     0.000 sec done=        21 (=100.0%) skipped=         0 
    ->Total LIBINT loop time =    0.007 sec

                         ----------------------------
                         !        ITERATION     7   !
                         ----------------------------
   Total Energy        :    -272.794762313428 Eh
   Energy Change       :      -0.000000270230 Eh
   MAX-DP              :       0.000121575379
   RMS-DP              :       0.000006384353
   Orbital gradient    :       0.000038529718
   Orbital Rotation    :       0.000015940996
   Actual Damping      :       0.0000

===> SHARK/Fock/General/Sym: HFTyp=1 DoJ=1 DoX=1 facj= 2.000 facx=-0.500 NFock=1 NumOp=1 NMat=1 RangeSep=0 GeneralContraction=0 PGCOpt=0
    -> L=0 0 0 0:     0.001 sec done=       916 (= 92.5%) skipped=        74 
    -> L=1 0 0 0:     0.003 sec done=      2242 (= 94.4%) skipped=       134 
    -> L=1 0 1 0:     0.003 sec done=      1462 (= 98.5%) skipped=        23 
    -> L=1 1 0 0:     0.002 sec done=       912 (= 98.7%) skipped=        12 
    -> L=1 1 1 0:     0.003 sec done=      1132 (= 99.8%) skipped=         2 
    -> L=1 1 1 1:     0.001 sec done=       231 (=100.0%) skipped=         0 
    -> L=2 0 0 0:     0.001 sec done=      1098 (= 92.4%) skipped=        90 
    -> RHF LowL loop time =     0.015 sec
    -> L=2 0 1 0:     0.003 sec done=      1444 (= 99.0%) skipped=        14 
    -> L=2 0 1 1:     0.002 sec done=       567 (=100.0%) skipped=         0 
    -> L=2 0 2 0:     0.001 sec done=       375 (= 99.2%) skipped=         3 
    -> L=2 1 0 0:     0.001 sec done=       740 (= 93.4%) skipped=        52 
    -> L=2 1 1 0:     0.003 sec done=       970 (= 99.8%) skipped=         2 
    -> L=2 1 2 0:     0.002 sec done=       486 (=100.0%) skipped=         0 
    -> L=2 2 0 0:     0.000 sec done=       240 (= 90.9%) skipped=        24 
    ->Total SHARK integral loop time =    0.014 sec
    -> L=0 1 2 2:     0.001 sec done=       324 (=100.0%) skipped=         0 
    -> L=0 2 2 2:     0.001 sec done=       162 (=100.0%) skipped=         0 
    -> L=1 1 1 2:     0.002 sec done=       378 (=100.0%) skipped=         0 
    -> L=1 1 2 2:     0.001 sec done=       126 (=100.0%) skipped=         0 
    -> L=1 2 1 2:     0.001 sec done=       171 (=100.0%) skipped=         0 
    -> L=1 2 2 2:     0.001 sec done=       108 (=100.0%) skipped=         0 
    -> L=2 2 2 2:     0.000 sec done=        21 (=100.0%) skipped=         0 
    ->Total LIBINT loop time =    0.007 sec

                         ----------------------------
                         !        ITERATION     8   !
                         ----------------------------
   Total Energy        :    -272.794762324005 Eh
   Energy Change       :      -0.000000010577 Eh
   MAX-DP              :       0.000037665633
   RMS-DP              :       0.000001466308
   Orbital gradient    :       0.000005551022
   Orbital Rotation    :       0.000003505740
   Actual Damping      :       0.0000

===> SHARK/Fock/General/Sym: HFTyp=1 DoJ=1 DoX=1 facj= 2.000 facx=-0.500 NFock=1 NumOp=1 NMat=1 RangeSep=0 GeneralContraction=0 PGCOpt=0
    -> L=0 0 0 0:     0.001 sec done=       874 (= 88.3%) skipped=       116 
    -> L=1 0 0 0:     0.003 sec done=      2168 (= 91.2%) skipped=       208 
    -> L=1 0 1 0:     0.003 sec done=      1439 (= 96.9%) skipped=        46 
    -> L=1 1 0 0:     0.002 sec done=       876 (= 94.8%) skipped=        48 
    -> L=1 1 1 0:     0.003 sec done=      1130 (= 99.6%) skipped=         4 
    -> L=1 1 1 1:     0.001 sec done=       231 (=100.0%) skipped=         0 
    -> L=2 0 0 0:     0.001 sec done=      1075 (= 90.5%) skipped=       113 
    -> RHF LowL loop time =     0.014 sec
    -> L=2 0 1 0:     0.003 sec done=      1413 (= 96.9%) skipped=        45 
    -> L=2 0 1 1:     0.002 sec done=       567 (=100.0%) skipped=         0 
    -> L=2 0 2 0:     0.001 sec done=       369 (= 97.6%) skipped=         9 
    -> L=2 1 0 0:     0.001 sec done=       720 (= 90.9%) skipped=        72 
    -> L=2 1 1 0:     0.003 sec done=       953 (= 98.0%) skipped=        19 
    -> L=2 1 2 0:     0.002 sec done=       486 (=100.0%) skipped=         0 
    -> L=2 2 0 0:     0.000 sec done=       240 (= 90.9%) skipped=        24 
    ->Total SHARK integral loop time =    0.013 sec
    -> L=0 1 2 2:     0.001 sec done=       320 (= 98.8%) skipped=         4 
    -> L=0 2 2 2:     0.001 sec done=       162 (=100.0%) skipped=         0 
    -> L=1 1 1 2:     0.002 sec done=       378 (=100.0%) skipped=         0 
    -> L=1 1 2 2:     0.001 sec done=       126 (=100.0%) skipped=         0 
    -> L=1 2 1 2:     0.001 sec done=       171 (=100.0%) skipped=         0 
    -> L=1 2 2 2:     0.001 sec done=       108 (=100.0%) skipped=         0 
    -> L=2 2 2 2:     0.000 sec done=        21 (=100.0%) skipped=         0 
    ->Total LIBINT loop time =    0.007 sec
                  ***Gradient check signals convergence***
              ***Rediagonalizing the Fockian in SOSCF/NRSCF***

               *****************************************************
               *                     SUCCESS                       *
               *           SCF CONVERGED AFTER   9 CYCLES          *
               *****************************************************


----------------
TOTAL SCF ENERGY
----------------

Total Energy       :         -272.79476232 Eh           -7423.12287 eV

Components:
Nuclear Repulsion  :          105.61854770 Eh            2874.02680 eV
Electronic Energy  :         -378.41331003 Eh          -10297.14966 eV
One Electron Energy:         -588.26473975 Eh          -16007.49737 eV
Two Electron Energy:          209.85142972 Eh            5710.34771 eV

Virial components:
Potential Energy   :         -550.72272480 Eh          -14985.92721 eV
Kinetic Energy     :          277.92796247 Eh            7562.80434 eV
Virial Ratio       :            1.98153047


---------------
SCF CONVERGENCE
---------------

  Last Energy change         ...   -2.9729e-10  Tolerance :   1.0000e-08
  Last MAX-Density change    ...    2.0414e-06  Tolerance :   1.0000e-07
  Last RMS-Density change    ...    2.3670e-07  Tolerance :   5.0000e-09
  Last Orbital Gradient      ...    2.0926e-06  Tolerance :   1.0000e-05
  Last Orbital Rotation      ...    1.9022e-06  Tolerance :   1.0000e-05

             **** THE GBW FILE WAS UPDATED (result.gbw) ****
             **** DENSITY result.scfp WAS UPDATED ****
             **** ENERGY FILE WAS UPDATED (result.en.tmp) ****
             **** THE GBW FILE WAS UPDATED (result.gbw) ****
             **** DENSITY result.scfp WAS UPDATED ****
----------------
ORBITAL ENERGIES
----------------

  NO   OCC          E(Eh)            E(eV) 
   0   2.0000     -26.361534      -717.3338 
   1   2.0000     -26.361443      -717.3313 
   2   2.0000     -20.722320      -563.8830 
   3   2.0000      -2.293703       -62.4148 
   4   2.0000      -1.894376       -51.5486 
   5   2.0000      -1.162272       -31.6270 
   6   2.0000      -1.086566       -29.5670 
   7   2.0000      -1.052008       -28.6266 
   8   2.0000      -1.000531       -27.2258 
   9   2.0000      -0.760516       -20.6947 
  10   2.0000      -0.679554       -18.4916 
  11   2.0000      -0.567895       -15.4532 
  12   2.0000      -0.338195        -9.2028 
  13   0.0000       0.685843        18.6627 
  14   0.0000       0.697546        18.9812 
  15   0.0000       0.995786        27.0967 
  16   0.0000       1.018513        27.7151 
  17   0.0000       1.099590        29.9214 
  18   0.0000       1.106180        30.1007 
  19   0.0000       1.331266        36.2256 
  20   0.0000       1.358167        36.9576 
  21   0.0000       1.457031        39.6478 
  22   0.0000       1.464153        39.8416 
  23   0.0000       1.480502        40.2865 
  24   0.0000       1.645505        44.7765 
  25   0.0000       1.724204        46.9180 
  26   0.0000       1.756353        47.7928 
  27   0.0000       1.851112        50.3713 
  28   0.0000       2.104937        57.2783 
  29   0.0000       2.146331        58.4046 
  30   0.0000       2.313424        62.9515 
  31   0.0000       2.314065        62.9689 
  32   0.0000       2.382379        64.8278 
  33   0.0000       2.485488        67.6336 
  34   0.0000       2.896766        78.8250 
  35   0.0000       3.077248        83.7362 
  36   0.0000       3.147363        85.6441 
  37   0.0000       3.312896        90.1485 
  38   0.0000       3.425613        93.2157 
  39   0.0000       3.552271        96.6622 
  40   0.0000       3.866167       105.2037 
  41   0.0000       4.102079       111.6232 
------------------
MOLECULAR ORBITALS
------------------
                      0         1         2         3         4         5   
                 -26.36153 -26.36144 -20.72232  -2.29370  -1.89438  -1.16227
                   2.00000   2.00000   2.00000   2.00000   2.00000   2.00000
                  --------  --------  --------  --------  --------  --------
  0O   1s        -0.000001 -0.000305  0.995519  0.158655  0.000000  0.134444
  0O   2s         0.000000  0.000061  0.027355 -0.325533 -0.000001 -0.324973
  0O   1pz       -0.000017 -0.000029 -0.003831  0.116821 -0.147624 -0.037928
  0O   1px       -0.000030  0.000026  0.003376 -0.102937 -0.260164  0.033421
  0O   1py        0.000013  0.000022  0.002849 -0.086867  0.109772  0.028203
  0O   3s        -0.000032 -0.011724  0.005938 -0.031127 -0.000000 -0.278419
  0O   2pz        0.001886  0.002747 -0.001211 -0.005062 -0.009683 -0.020052
  0O   2px        0.003305 -0.002434  0.001067  0.004461 -0.017065  0.017669
  0O   2py       -0.001403 -0.002043  0.000900  0.003764  0.007200  0.014910
  0O   1dz2       0.000651 -0.000046 -0.000236  0.000483  0.033374  0.002395
[...]
 1 F  px              0.0       0.0       0.0       2.4       0.1      10.3
 1 F  dz2             0.0       0.0       0.0       0.1       0.0       0.3
 1 F  dx2y2           0.0       0.0       0.0       0.3       0.0       0.8
 2 F  s              50.0      50.0       0.0      30.7      42.0      14.1
 2 F  pz              0.0       0.0       0.0       1.4       0.1       6.3
 2 F  px              0.0       0.0       0.0       0.3       0.0       0.6
 2 F  py              0.0       0.0       0.0       0.7       0.0       3.5
 2 F  dz2             0.0       0.0       0.0       0.0       0.0       0.2
 2 F  dxz             0.0       0.0       0.0       0.1       0.0       0.1
 2 F  dyz             0.0       0.0       0.0       0.2       0.0       0.6

                      6         7         8         9        10        11   
                  -0.83242  -0.81746  -0.81602  -0.71869  -0.67205  -0.64638
                   2.00000   2.00000   2.00000   2.00000   2.00000   2.00000
                  --------  --------  --------  --------  --------  --------
 0 O  s               0.0       2.9       0.0       0.0       0.0       7.4
 0 O  pz             14.1      10.4       5.7       0.0       0.5      12.0
 0 O  px              0.0       8.1      17.8       0.0       1.6       9.3
 0 O  py             25.5       5.8       3.2       0.0       0.3       6.6
 0 O  dz2             0.2       0.0       0.1       0.2       0.2       0.0
 0 O  dxz             0.0       0.5       0.0       0.3       0.1       0.6
 0 O  dyz             0.0       0.1       0.1       0.0       0.2       0.1
 0 O  dx2y2           0.1       0.0       0.2       0.1       0.4       0.4
 0 O  dxy             0.1       0.3       0.0       0.5       0.0       0.3
 1 F  s               0.0       0.8       2.5       0.0       0.1       0.3
 1 F  pz             10.5      18.4       5.9      17.6      25.5      12.9
 1 F  px              0.0       6.4      24.3       0.0       8.5      11.1
 1 F  py             19.1      10.2       3.3      31.9      14.1       7.1
 1 F  dxz             0.1       0.1       0.1       0.0       0.0       0.1
 1 F  dx2y2           0.0       0.1       0.3       0.0       0.0       0.0
 1 F  dxy             0.2       0.1       0.0       0.0       0.0       0.0
 2 F  s               0.0       0.8       2.5       0.0       0.1       0.3
 2 F  pz             10.5       0.2      20.6      17.6       0.3      13.8
 2 F  px              0.0      34.6       1.5       0.0      47.8       9.7
 2 F  py             19.1       0.1      11.4      31.9       0.2       7.6
 2 F  dz2             0.2       0.0       0.1       0.0       0.0       0.0
 2 F  dxz             0.0       0.2       0.0       0.0       0.0       0.1
 2 F  dyz             0.0       0.0       0.3       0.0       0.0       0.0

                     12        13        14        15        16        17   
                  -0.55512   0.19993   0.23637   1.02328   1.05382   1.08331
                   2.00000   0.00000   0.00000   0.00000   0.00000   0.00000
                  --------  --------  --------  --------  --------  --------
 0 O  s               0.0       9.3       0.0       0.0       4.2       0.0
 0 O  pz             20.9      15.3      11.1      17.0      36.2      32.2
 0 O  px              0.0      11.9      34.4      52.8      28.1       0.0
 0 O  py             37.7       8.4       6.1       9.4      20.0      58.2
 0 O  dz2             0.1       0.0       2.2       1.4       0.0       0.3
 0 O  dxz             0.0       0.1       0.6       0.4       0.5       0.1
 0 O  dyz             0.0       2.1       1.6       1.0       1.7       0.0
 0 O  dx2y2           0.0       1.3       3.2       2.1       0.3       0.1
 0 O  dxy             0.1       0.1       0.3       0.2       0.3       0.1
 1 F  s               0.0       2.2       2.4       1.4       0.6       0.0
 1 F  pz              7.1       0.2       0.8       1.2       0.5       1.5
 1 F  px              0.0      20.0      14.1       2.2       2.3       0.0
 1 F  py             12.8       0.1       0.4       0.6       0.3       2.6
 1 F  dz2             0.0       0.8       0.4       0.6       0.0       0.0
 1 F  dxz             0.2       0.1       0.4       0.1       0.1       0.1
 1 F  dyz             0.0       0.0       0.0       0.1       0.2       0.0
 1 F  dx2y2           0.0       2.2       1.4       1.5       0.2       0.0
 1 F  dxy             0.4       0.1       0.2       0.1       0.0       0.2
 2 F  s               0.0       2.2       2.4       1.4       0.6       0.0
 2 F  pz              7.1      10.4       9.8       0.6       1.9       1.5
 2 F  px              0.0       4.2       0.1       3.1       0.2       0.0
 2 F  py             12.8       5.7       5.4       0.3       1.1       2.6
 2 F  dz2             0.4       0.3       0.5       0.2       0.0       0.3
 2 F  dxz             0.0       1.2       0.0       1.0       0.0       0.0
 2 F  dyz             0.0       1.1       1.7       0.7       0.5       0.0
 2 F  dx2y2           0.1       0.1       0.2       0.1       0.0       0.1
 2 F  dxy             0.0       0.7       0.0       0.5       0.0       0.0

                     18        19        20        21        22        23   
                   1.22612   1.34447   1.46528   1.47135   1.47614   1.50517
                   0.00000   0.00000   0.00000   0.00000   0.00000   0.00000
                  --------  --------  --------  --------  --------  --------
 0 O  s              54.5       4.5       0.0       0.0       0.0       1.9
 0 O  pz              0.1       0.3       0.0       0.2       2.1       1.4
 0 O  px              0.1       0.2       0.0       0.6       0.0       1.1
 0 O  py              0.0       0.1       0.0       0.1       3.7       0.8
 0 O  dz2             0.1       0.2       2.2       1.3       4.4       0.0
 0 O  dxz             0.9       3.8       2.3       0.3       1.1       0.1
 0 O  dyz             3.7       2.5       0.3       1.0       0.5       5.9
 0 O  dx2y2           2.9       0.0       0.7       1.9       1.5       3.0
 0 O  dxy             0.5       2.1       4.1       0.2       2.0       0.0
 1 F  s              11.9       1.0       0.0       8.9       0.0       3.0
 1 F  pz              2.5      21.7      15.9       1.2      14.6       3.4
 1 F  px              0.2       6.0       0.0      33.8       0.0      29.0
 1 F  py              1.4      12.0      28.7       0.6      26.4       1.9
 1 F  dz2             0.4       0.2       0.4       0.7       0.8       0.6
 1 F  dxz             0.5       0.7       0.0       0.0       0.1       0.9
 1 F  dyz             0.1       1.0       0.1       0.0       0.1       0.4
 1 F  dx2y2           1.5       0.0       0.1       1.9       0.3       3.2
 1 F  dxy             0.3       0.4       0.1       0.0       0.1       0.5
 2 F  s              11.9       1.0       0.0       8.9       0.0       3.0
 2 F  pz              0.7       0.1      15.9      22.6      14.6      22.0
 2 F  px              2.9      39.6       0.0       0.5       0.0       0.1
 2 F  py              0.4       0.1      28.7      12.5      26.4      12.2
 2 F  dz2             0.6       0.6       0.2       0.3       0.4       0.9
 2 F  dxz             0.0       0.0       0.1       0.8       0.2       0.0
 2 F  dyz             2.0       0.0       0.0       1.1       0.1       4.6
 2 F  dx2y2           0.2       1.7       0.1       0.1       0.1       0.1
 2 F  dxy             0.0       0.0       0.3       0.4       0.4       0.0

                     24        25        26        27        28        29   
                   1.60303   1.68157   1.72023   1.74964   1.87090   1.99755
                   0.00000   0.00000   0.00000   0.00000   0.00000   0.00000
                  --------  --------  --------  --------  --------  --------
 0 O  s               0.0       0.4       0.0       0.0       1.6       0.0
 0 O  pz              0.5       0.3       0.0       0.3       0.5       0.2
 0 O  px              1.5       0.2       0.0       0.0       0.4       0.7
 0 O  py              0.3       0.2       0.0       0.5       0.3       0.1
 0 O  dz2             0.3       0.9       9.4      20.6       0.3       0.5
 0 O  dxz             0.1      18.0       9.7       5.3       2.7       0.1
 0 O  dyz             0.2       6.6       1.1       2.5       8.1       0.4
 0 O  dx2y2           0.5       0.0       3.1       6.9       6.9       0.7
 0 O  dxy             0.0      10.0      17.6       9.6       1.5       0.1
 1 F  s               0.4       0.2       0.0       0.0      11.7      16.2
 1 F  pz             26.3       3.1       1.4       0.9       0.8       0.0
 1 F  px              0.5       1.3       0.0       0.0       2.6       2.4
 1 F  py             14.5       1.7       2.5       1.7       0.4       0.0
 1 F  dz2             0.0       0.0       1.6       3.0       4.9       0.7
 1 F  dxz             4.0      15.8       8.3       7.2       0.1       0.2
 1 F  dyz             0.2       0.5       0.2       0.4      16.5      14.9
 1 F  dx2y2           0.2       0.4       0.5       1.0       1.9      14.1
 1 F  dxy             2.2       8.7      15.0      13.0       0.0       0.1
 2 F  s               0.4       0.2       0.0       0.0      11.7      16.2
 2 F  pz              1.5       0.1       1.4       0.9       2.3       1.3
 2 F  px             39.0       5.9       0.0       0.0       0.3       0.4
 2 F  py              0.8       0.1       2.5       1.7       1.3       0.7
 2 F  dz2             0.7       2.8      17.6       8.6       3.1       0.3
 2 F  dxz             2.5      10.2       0.0       4.3       5.2       0.1
 2 F  dyz             0.0       0.4       2.1       1.0       0.4      25.2
 2 F  dx2y2           1.8       6.4       5.9       2.9      11.8       4.5
 2 F  dxy             1.4       5.6       0.0       7.7       2.9       0.0

                     30        31        32        33        34        35   
                   2.09621   2.13430   2.14463   2.19944   2.42880   2.47270
                   0.00000   0.00000   0.00000   0.00000   0.00000   0.00000
                  --------  --------  --------  --------  --------  --------
 0 O  s               0.0       0.0       0.0       6.8       0.0      14.4
 0 O  pz              0.2       0.0       0.9       0.3       0.5       2.6
 0 O  px              0.0       0.0       2.8       0.3       1.4       2.0
 0 O  py              0.3       0.0       0.5       0.2       0.3       1.4
 0 O  dz2             1.9       0.1       0.1       0.0       1.8       0.2
 0 O  dxz             0.5       0.1       0.0       0.5       0.5       1.3
 0 O  dyz             0.2       0.0       0.1       7.6       1.4      20.7
 0 O  dx2y2           0.6       0.0       0.2       2.4       2.7      12.7
 0 O  dxy             0.9       0.2       0.0       0.3       0.3       0.7
 1 F  s               0.0       0.0       5.9       5.7       0.3       0.5
 1 F  pz              0.1       0.1       0.0       0.0       3.0       0.0
 1 F  px              0.0       0.0       0.1       0.2       0.2       4.5
 1 F  py              0.3       0.2       0.0       0.0       1.6       0.0
 1 F  dz2            30.4      31.5       8.9       0.0       0.7       5.2
 1 F  dxz             1.1       1.3       1.3       0.0      24.6       0.0
 1 F  dyz             3.7       3.8      26.3      24.5       0.9       2.0
 1 F  dx2y2          10.1      10.5       4.4      10.3       0.8       9.8
 1 F  dxy             2.0       2.4       0.7       0.0      13.6       0.0
 2 F  s               0.0       0.0       5.9       5.7       0.3       0.5
 2 F  pz              0.1       0.1       0.0       0.1       0.7       2.6
 2 F  px              0.0       0.0       0.0       0.0       3.7       0.4
 2 F  py              0.3       0.2       0.0       0.1       0.4       1.4
 2 F  dz2            10.4       0.1       4.0       0.1       8.0       3.1
 2 F  dxz            11.5      17.5      13.5       0.0       9.6       4.0
 2 F  dyz             1.3       0.0       0.7      22.8       4.8       4.3
 2 F  dx2y2           3.5       0.0      15.9      12.1      12.8       3.2
 2 F  dxy            20.7      31.7       7.5       0.0       5.3       2.2

                     36        37        38        39        40        41   
                   2.58566   2.78645   2.78735   3.02336   3.43941   3.47550
                   0.00000   0.00000   0.00000   0.00000   0.00000   0.00000
                  --------  --------  --------  --------  --------  --------
 0 O  s               0.0       0.0       0.0       0.9       0.0      18.4
 0 O  pz              2.1       0.0       1.5       1.4       1.4       1.5
 0 O  px              6.5       0.0       0.0       1.1       4.3       1.2
 0 O  py              1.2       0.0       2.8       0.8       0.8       0.8
 0 O  dz2            12.4      11.0      18.5       1.6       6.6       0.1
 0 O  dxz             3.2      11.4       4.8      27.7       1.7       0.6
 0 O  dyz             9.1       1.3       2.2       3.8       4.8       7.9
 0 O  dx2y2          18.3       3.7       6.2       1.0       9.7       4.9
 0 O  dxy             1.8      20.7       8.6      15.3       0.9       0.3
 1 F  s               3.6       0.0       0.0       0.2      16.3      17.0
 1 F  pz              0.6       0.6       0.8       0.8       0.0       0.0
 1 F  px              8.5       0.0       0.0       0.0       5.4       3.7
 1 F  py              0.3       1.1       1.5       0.5       0.0       0.0
 1 F  dz2             0.3       0.9       0.3       0.1       3.1       2.9
 1 F  dxz             1.4       8.1       8.9      13.5       0.1       0.3
 1 F  dyz             3.4       0.1       0.0       0.6       0.0       0.1
 1 F  dx2y2           4.0       0.3       0.1       0.0      10.0       8.0
 1 F  dxy             0.8      14.7      16.1       7.5       0.0       0.2
 2 F  s               3.6       0.0       0.0       0.2      16.3      17.0
 2 F  pz              4.0       0.6       0.8       0.2       3.0       2.3
 2 F  px              3.2       0.0       0.0       1.1       0.7       0.2
 2 F  py              2.2       1.1       1.5       0.1       1.7       1.3
 2 F  dz2             0.1      16.4      14.0       1.8       1.3       2.2
 2 F  dxz             1.7       0.1       1.8       9.9       3.0       1.2
 2 F  dyz             4.2       2.0       1.7       2.7       7.1       6.3
 2 F  dx2y2           2.9       5.5       4.7       1.8       0.2       1.1
 2 F  dxy             0.9       0.2       3.2       5.5       1.7       0.7



                      *****************************
                      * MAYER POPULATION ANALYSIS *
                      *****************************

  NA   - Mulliken gross atomic population
  ZA   - Total nuclear charge
  QA   - Mulliken gross atomic charge
  VA   - Mayer's total valence
  BVA  - Mayer's bonded valence
  FA   - Mayer's free valence

  ATOM       NA         ZA         QA         VA         BVA        FA
  0 O      7.6338     8.0000     0.3662     1.8357     1.8357     0.0000
  1 F      9.1831     9.0000    -0.1831     0.9456     0.9456     0.0000
  2 F      9.1831     9.0000    -0.1831     0.9456     0.9456    -0.0000

  Mayer bond orders larger than 0.100000
B(  0-O ,  1-F ) :   0.9179 B(  0-O ,  2-F ) :   0.9179 

-------
TIMINGS
-------

Total SCF time: 0 days 0 hours 0 min 0 sec 

Total time                  ....       0.658 sec
Sum of individual times     ....       0.410 sec  ( 62.3%)

Fock matrix formation       ....       0.125 sec  ( 19.0%)
Diagonalization             ....       0.002 sec  (  0.3%)
Density matrix formation    ....       0.000 sec  (  0.0%)
Population analysis         ....       0.278 sec  ( 42.2%)
Initial guess               ....       0.002 sec  (  0.3%)
Orbital Transformation      ....       0.000 sec  (  0.0%)
Orbital Orthonormalization  ....       0.000 sec  (  0.0%)
DIIS solution               ....       0.000 sec  (  0.0%)
SOSCF solution              ....       0.004 sec  (  0.6%)

Maximum memory used throughout the entire SCF-calculation: 226.2 MB

-------------------------   --------------------
FINAL SINGLE POINT ENERGY      -273.448170632353
-------------------------   --------------------

                                *** OPTIMIZATION RUN DONE ***

                            ***************************************
                            *     ORCA property calculations      *
                            ***************************************

                                    ---------------------
                                    Active property flags
                                    ---------------------
   (+) Dipole Moment


------------------------------------------------------------------------------
                       ORCA ELECTRIC PROPERTIES CALCULATION
------------------------------------------------------------------------------

Dipole Moment Calculation                       ... on
Quadrupole Moment Calculation                   ... off
Polarizability Calculation                      ... off
GBWName                                         ... result.gbw
Electron density                                ... result.scfp
----------------------
SHARK INTEGRAL PACKAGE
----------------------

Number of atoms                             ...      3
Number of basis functions                   ...     42
Number of shells                            ...     18
Maximum angular momentum                    ...      2
Integral batch strategy                     ... SHARK/LIBINT Hybrid
RI-J (if used) integral strategy            ... SPLIT-RIJ (Revised 2003 algorithm where possible)
Printlevel                                  ...      2
Contraction scheme used                     ... SEGMENTED contraction
Coulomb Range Separation                    ... NOT USED
Exchange Range Separation                   ... NOT USED
Finite Nucleus Model                        ... NOT USED
Auxiliary Coulomb fitting basis             ... NOT available
Auxiliary J/K fitting basis                 ... NOT available
Auxiliary Correlation fitting basis         ... NOT available
Auxiliary 'external' fitting basis          ... NOT available
Integral threshold                          ...     2.500000e-11
Primitive cut-off                           ...     2.500000e-12
Primitive pair pre-selection threshold      ...     2.500000e-12

The origin for moment calculation is the CENTER OF MASS  = (-3.364531,  1.991192 -0.500680)

-------------
DIPOLE MOMENT
-------------
                                X             Y             Z
Electronic contribution:      0.20960       0.17687      -0.23786
Nuclear contribution   :     -0.27061      -0.22836       0.30711
                        -----------------------------------------
Total Dipole Moment    :     -0.06101      -0.05149       0.06924
                        -----------------------------------------
Magnitude (a.u.)       :      0.10568
Magnitude (Debye)      :      0.26862



--------------------
Rotational spectrum 
--------------------
 
Rotational constants in cm-1:     2.133384     0.397065     0.334760 
Rotational constants in MHz : 63957.229361 11903.706211 10035.838111 

 Dipole components along the rotational axes: 
x,y,z [a.u.] :    -0.000000     0.105679    -0.000000 
x,y,z [Debye]:    -0.000000     0.268615    -0.000000 

 

Timings for individual modules:

Sum of individual times         ...       13.184 sec (=   0.220 min)
GTO integral calculation        ...        1.315 sec (=   0.022 min)  10.0 %
SCF iterations                  ...        9.067 sec (=   0.151 min)  68.8 %
SCF Gradient evaluation         ...        2.504 sec (=   0.042 min)  19.0 %
Geometry relaxation             ...        0.297 sec (=   0.005 min)   2.3 %
                             ****ORCA TERMINATED NORMALLY****
TOTAL RUN TIME: 0 days 0 hours 0 minutes 23 seconds 508 msec
